
         896 atoms

4 atom types

0.0         8.8055200 xlo xhi
0.0         8.8055200 ylo yhi
      -4.3585101       14.165157 zlo zhi

Masses

1 1.000000
2 1.000000
3 1.000000
4 1.000000

Atoms
 
      1 2    0.000000    0.000000    0.000000    0    0    1    0.000000    0.000000    0.000000
      2 2    0.550345    0.550345    0.778305    0    0    0    0.550345    0.550345    0.778305
      3 3    0.000000    0.000000    1.556611    0    0    0    0.000000    0.000000    1.556611
      4 3    0.550345    0.550345    2.334916    0    0    0    0.550345    0.550345    2.334916
      5 3    0.000000    0.000000    3.113221 0 0 0 0.0 0.0 0.0
      6 3    0.550345    0.550345    3.891527 0 0 0 0.0 0.0 0.0
      7 3    0.000000    0.000000    4.669832 0 0 0 0.0 0.0 0.0
      8 3    0.550345    0.550345    5.448138 0 0 0 0.0 0.0 0.0
      9 3    0.000000    0.000000    6.226443 0 0 0 0.0 0.0 0.0
     10 3    0.550345    0.550345    7.004748 0 0 0 0.0 0.0 0.0
     11 3    0.000000    0.000000    7.783054 0 0 0 0.0 0.0 0.0
     12 3    0.550345    0.550345    8.561359 0 0 0 0.0 0.0 0.0
     13 3    0.000000    0.000000    9.339664 0 0 0 0.0 0.0 0.0
     14 3    0.550345    0.550345   10.117970 0 0 0 0.0 0.0 0.0
     15 2    0.000000    1.100690    0.000000    0    1    1    0.000000    1.100690    0.000000
     16 2    0.550345    1.651035    0.778305    0    1    0    0.550345    1.651035    0.778305
     17 3    0.000000    1.100690    1.556611    0    1    0    0.000000    1.100690    1.556611
     18 3    0.550345    1.651035    2.334916    0    1    0    0.550345    1.651035    2.334916
     19 3    0.000000    1.100690    3.113221 0 0 0 0.0 0.0 0.0
     20 3    0.550345    1.651035    3.891527 0 0 0 0.0 0.0 0.0
     21 3    0.000000    1.100690    4.669832 0 0 0 0.0 0.0 0.0
     22 3    0.550345    1.651035    5.448138 0 0 0 0.0 0.0 0.0
     23 3    0.000000    1.100690    6.226443 0 0 0 0.0 0.0 0.0
     24 3    0.550345    1.651035    7.004748 0 0 0 0.0 0.0 0.0
     25 3    0.000000    1.100690    7.783054 0 0 0 0.0 0.0 0.0
     26 3    0.550345    1.651035    8.561359 0 0 0 0.0 0.0 0.0
     27 3    0.000000    1.100690    9.339664 0 0 0 0.0 0.0 0.0
     28 3    0.550345    1.651035   10.117970 0 0 0 0.0 0.0 0.0
     29 2    0.000000    2.201380    0.000000    0    2    1    0.000000    2.201380    0.000000
     30 2    0.550345    2.751725    0.778305    0    2    0    0.550345    2.751725    0.778305
     31 3    0.000000    2.201380    1.556611    0    2    0    0.000000    2.201380    1.556611
     32 3    0.550345    2.751725    2.334916    0    2    0    0.550345    2.751725    2.334916
     33 3    0.000000    2.201380    3.113221 0 0 0 0.0 0.0 0.0
     34 3    0.550345    2.751725    3.891527 0 0 0 0.0 0.0 0.0
     35 3    0.000000    2.201380    4.669832 0 0 0 0.0 0.0 0.0
     36 3    0.550345    2.751725    5.448138 0 0 0 0.0 0.0 0.0
     37 3    0.000000    2.201380    6.226443 0 0 0 0.0 0.0 0.0
     38 3    0.550345    2.751725    7.004748 0 0 0 0.0 0.0 0.0
     39 3    0.000000    2.201380    7.783054 0 0 0 0.0 0.0 0.0
     40 3    0.550345    2.751725    8.561359 0 0 0 0.0 0.0 0.0
     41 3    0.000000    2.201380    9.339664 0 0 0 0.0 0.0 0.0
     42 3    0.550345    2.751725   10.117970 0 0 0 0.0 0.0 0.0
     43 2    0.000000    3.302070    0.000000    0    3    1    0.000000    3.302070    0.000000
     44 2    0.550345    3.852415    0.778305    0    3    0    0.550345    3.852415    0.778305
     45 3    0.000000    3.302070    1.556611    0    3    0    0.000000    3.302070    1.556611
     46 3    0.550345    3.852415    2.334916    0    3    0    0.550345    3.852415    2.334916
     47 3    0.000000    3.302070    3.113221 0 0 0 0.0 0.0 0.0
     48 3    0.550345    3.852415    3.891527 0 0 0 0.0 0.0 0.0
     49 3    0.000000    3.302070    4.669832 0 0 0 0.0 0.0 0.0
     50 3    0.550345    3.852415    5.448138 0 0 0 0.0 0.0 0.0
     51 3    0.000000    3.302070    6.226443 0 0 0 0.0 0.0 0.0
     52 3    0.550345    3.852415    7.004748 0 0 0 0.0 0.0 0.0
     53 3    0.000000    3.302070    7.783054 0 0 0 0.0 0.0 0.0
     54 3    0.550345    3.852415    8.561359 0 0 0 0.0 0.0 0.0
     55 3    0.000000    3.302070    9.339664 0 0 0 0.0 0.0 0.0
     56 3    0.550345    3.852415   10.117970 0 0 0 0.0 0.0 0.0
     57 2    0.000000    4.402760    0.000000    0    4    1    0.000000    4.402760    0.000000
     58 2    0.550345    4.953105    0.778305    0    4    0    0.550345    4.953105    0.778305
     59 3    0.000000    4.402760    1.556611    0    4    0    0.000000    4.402760    1.556611
     60 3    0.550345    4.953105    2.334916    0    4    0    0.550345    4.953105    2.334916
     61 3    0.000000    4.402760    3.113221 0 0 0 0.0 0.0 0.0
     62 3    0.550345    4.953105    3.891527 0 0 0 0.0 0.0 0.0
     63 3    0.000000    4.402760    4.669832 0 0 0 0.0 0.0 0.0
     64 3    0.550345    4.953105    5.448138 0 0 0 0.0 0.0 0.0
     65 3    0.000000    4.402760    6.226443 0 0 0 0.0 0.0 0.0
     66 3    0.550345    4.953105    7.004748 0 0 0 0.0 0.0 0.0
     67 3    0.000000    4.402760    7.783054 0 0 0 0.0 0.0 0.0
     68 3    0.550345    4.953105    8.561359 0 0 0 0.0 0.0 0.0
     69 3    0.000000    4.402760    9.339664 0 0 0 0.0 0.0 0.0
     70 3    0.550345    4.953105   10.117970 0 0 0 0.0 0.0 0.0
     71 2    0.000000    5.503450    0.000000    0    5    1    0.000000    5.503450    0.000000
     72 2    0.550345    6.053795    0.778305    0    5    0    0.550345    6.053795    0.778305
     73 3    0.000000    5.503450    1.556611    0    5    0    0.000000    5.503450    1.556611
     74 3    0.550345    6.053795    2.334916    0    5    0    0.550345    6.053795    2.334916
     75 3    0.000000    5.503450    3.113221 0 0 0 0.0 0.0 0.0
     76 3    0.550345    6.053795    3.891527 0 0 0 0.0 0.0 0.0
     77 3    0.000000    5.503450    4.669832 0 0 0 0.0 0.0 0.0
     78 3    0.550345    6.053795    5.448138 0 0 0 0.0 0.0 0.0
     79 3    0.000000    5.503450    6.226443 0 0 0 0.0 0.0 0.0
     80 3    0.550345    6.053795    7.004748 0 0 0 0.0 0.0 0.0
     81 3    0.000000    5.503450    7.783054 0 0 0 0.0 0.0 0.0
     82 3    0.550345    6.053795    8.561359 0 0 0 0.0 0.0 0.0
     83 3    0.000000    5.503450    9.339664 0 0 0 0.0 0.0 0.0
     84 3    0.550345    6.053795   10.117970 0 0 0 0.0 0.0 0.0
     85 2    0.000000    6.604140    0.000000    0    6    1    0.000000    6.604140    0.000000
     86 2    0.550345    7.154485    0.778305    0    6    0    0.550345    7.154485    0.778305
     87 3    0.000000    6.604140    1.556611    0    6    0    0.000000    6.604140    1.556611
     88 3    0.550345    7.154485    2.334916    0    6    0    0.550345    7.154485    2.334916
     89 3    0.000000    6.604140    3.113221 0 0 0 0.0 0.0 0.0
     90 3    0.550345    7.154485    3.891527 0 0 0 0.0 0.0 0.0
     91 3    0.000000    6.604140    4.669832 0 0 0 0.0 0.0 0.0
     92 3    0.550345    7.154485    5.448138 0 0 0 0.0 0.0 0.0
     93 3    0.000000    6.604140    6.226443 0 0 0 0.0 0.0 0.0
     94 3    0.550345    7.154485    7.004748 0 0 0 0.0 0.0 0.0
     95 3    0.000000    6.604140    7.783054 0 0 0 0.0 0.0 0.0
     96 3    0.550345    7.154485    8.561359 0 0 0 0.0 0.0 0.0
     97 3    0.000000    6.604140    9.339664 0 0 0 0.0 0.0 0.0
     98 3    0.550345    7.154485   10.117970 0 0 0 0.0 0.0 0.0
     99 2    0.000000    7.704830    0.000000    0    7    1    0.000000    7.704830    0.000000
    100 2    0.550345    8.255175    0.778305    0    7    0    0.550345    8.255175    0.778305
    101 3    0.000000    7.704830    1.556611    0    7    0    0.000000    7.704830    1.556611
    102 3    0.550345    8.255175    2.334916    0    7    0    0.550345    8.255175    2.334916
    103 3    0.000000    7.704830    3.113221 0 0 0 0.0 0.0 0.0
    104 3    0.550345    8.255175    3.891527 0 0 0 0.0 0.0 0.0
    105 3    0.000000    7.704830    4.669832 0 0 0 0.0 0.0 0.0
    106 3    0.550345    8.255175    5.448138 0 0 0 0.0 0.0 0.0
    107 3    0.000000    7.704830    6.226443 0 0 0 0.0 0.0 0.0
    108 3    0.550345    8.255175    7.004748 0 0 0 0.0 0.0 0.0
    109 3    0.000000    7.704830    7.783054 0 0 0 0.0 0.0 0.0
    110 3    0.550345    8.255175    8.561359 0 0 0 0.0 0.0 0.0
    111 3    0.000000    7.704830    9.339664 0 0 0 0.0 0.0 0.0
    112 3    0.550345    8.255175   10.117970 0 0 0 0.0 0.0 0.0
    113 2    1.100690    0.000000    0.000000    1    0    1    1.100690    0.000000    0.000000
    114 2    1.651035    0.550345    0.778305    1    0    0    1.651035    0.550345    0.778305
    115 3    1.100690    0.000000    1.556611    1    0    0    1.100690    0.000000    1.556611
    116 3    1.651035    0.550345    2.334916    1    0    0    1.651035    0.550345    2.334916
    117 3    1.100690    0.000000    3.113221 0 0 0 0.0 0.0 0.0
    118 3    1.651035    0.550345    3.891527 0 0 0 0.0 0.0 0.0
    119 3    1.100690    0.000000    4.669832 0 0 0 0.0 0.0 0.0
    120 3    1.651035    0.550345    5.448138 0 0 0 0.0 0.0 0.0
    121 3    1.100690    0.000000    6.226443 0 0 0 0.0 0.0 0.0
    122 3    1.651035    0.550345    7.004748 0 0 0 0.0 0.0 0.0
    123 3    1.100690    0.000000    7.783054 0 0 0 0.0 0.0 0.0
    124 3    1.651035    0.550345    8.561359 0 0 0 0.0 0.0 0.0
    125 3    1.100690    0.000000    9.339664 0 0 0 0.0 0.0 0.0
    126 3    1.651035    0.550345   10.117970 0 0 0 0.0 0.0 0.0
    127 2    1.100690    1.100690    0.000000    1    1    1    1.100690    1.100690    0.000000
    128 2    1.651035    1.651035    0.778305    1    1    0    1.651035    1.651035    0.778305
    129 3    1.100690    1.100690    1.556611    1    1    0    1.100690    1.100690    1.556611
    130 3    1.651035    1.651035    2.334916    1    1    0    1.651035    1.651035    2.334916
    131 3    1.100690    1.100690    3.113221 0 0 0 0.0 0.0 0.0
    132 3    1.651035    1.651035    3.891527 0 0 0 0.0 0.0 0.0
    133 3    1.100690    1.100690    4.669832 0 0 0 0.0 0.0 0.0
    134 3    1.651035    1.651035    5.448138 0 0 0 0.0 0.0 0.0
    135 3    1.100690    1.100690    6.226443 0 0 0 0.0 0.0 0.0
    136 3    1.651035    1.651035    7.004748 0 0 0 0.0 0.0 0.0
    137 3    1.100690    1.100690    7.783054 0 0 0 0.0 0.0 0.0
    138 3    1.651035    1.651035    8.561359 0 0 0 0.0 0.0 0.0
    139 3    1.100690    1.100690    9.339664 0 0 0 0.0 0.0 0.0
    140 3    1.651035    1.651035   10.117970 0 0 0 0.0 0.0 0.0
    141 2    1.100690    2.201380    0.000000    1    2    1    1.100690    2.201380    0.000000
    142 2    1.651035    2.751725    0.778305    1    2    0    1.651035    2.751725    0.778305
    143 3    1.100690    2.201380    1.556611    1    2    0    1.100690    2.201380    1.556611
    144 3    1.651035    2.751725    2.334916    1    2    0    1.651035    2.751725    2.334916
    145 3    1.100690    2.201380    3.113221 0 0 0 0.0 0.0 0.0
    146 3    1.651035    2.751725    3.891527 0 0 0 0.0 0.0 0.0
    147 3    1.100690    2.201380    4.669832 0 0 0 0.0 0.0 0.0
    148 3    1.651035    2.751725    5.448138 0 0 0 0.0 0.0 0.0
    149 3    1.100690    2.201380    6.226443 0 0 0 0.0 0.0 0.0
    150 3    1.651035    2.751725    7.004748 0 0 0 0.0 0.0 0.0
    151 3    1.100690    2.201380    7.783054 0 0 0 0.0 0.0 0.0
    152 3    1.651035    2.751725    8.561359 0 0 0 0.0 0.0 0.0
    153 3    1.100690    2.201380    9.339664 0 0 0 0.0 0.0 0.0
    154 3    1.651035    2.751725   10.117970 0 0 0 0.0 0.0 0.0
    155 2    1.100690    3.302070    0.000000    1    3    1    1.100690    3.302070    0.000000
    156 2    1.651035    3.852415    0.778305    1    3    0    1.651035    3.852415    0.778305
    157 3    1.100690    3.302070    1.556611    1    3    0    1.100690    3.302070    1.556611
    158 3    1.651035    3.852415    2.334916    1    3    0    1.651035    3.852415    2.334916
    159 3    1.100690    3.302070    3.113221 0 0 0 0.0 0.0 0.0
    160 3    1.651035    3.852415    3.891527 0 0 0 0.0 0.0 0.0
    161 3    1.100690    3.302070    4.669832 0 0 0 0.0 0.0 0.0
    162 3    1.651035    3.852415    5.448138 0 0 0 0.0 0.0 0.0
    163 3    1.100690    3.302070    6.226443 0 0 0 0.0 0.0 0.0
    164 3    1.651035    3.852415    7.004748 0 0 0 0.0 0.0 0.0
    165 3    1.100690    3.302070    7.783054 0 0 0 0.0 0.0 0.0
    166 3    1.651035    3.852415    8.561359 0 0 0 0.0 0.0 0.0
    167 3    1.100690    3.302070    9.339664 0 0 0 0.0 0.0 0.0
    168 3    1.651035    3.852415   10.117970 0 0 0 0.0 0.0 0.0
    169 2    1.100690    4.402760    0.000000    1    4    1    1.100690    4.402760    0.000000
    170 2    1.651035    4.953105    0.778305    1    4    0    1.651035    4.953105    0.778305
    171 3    1.100690    4.402760    1.556611    1    4    0    1.100690    4.402760    1.556611
    172 3    1.651035    4.953105    2.334916    1    4    0    1.651035    4.953105    2.334916
    173 3    1.100690    4.402760    3.113221 0 0 0 0.0 0.0 0.0
    174 3    1.651035    4.953105    3.891527 0 0 0 0.0 0.0 0.0
    175 3    1.100690    4.402760    4.669832 0 0 0 0.0 0.0 0.0
    176 3    1.651035    4.953105    5.448138 0 0 0 0.0 0.0 0.0
    177 3    1.100690    4.402760    6.226443 0 0 0 0.0 0.0 0.0
    178 3    1.651035    4.953105    7.004748 0 0 0 0.0 0.0 0.0
    179 3    1.100690    4.402760    7.783054 0 0 0 0.0 0.0 0.0
    180 3    1.651035    4.953105    8.561359 0 0 0 0.0 0.0 0.0
    181 3    1.100690    4.402760    9.339664 0 0 0 0.0 0.0 0.0
    182 3    1.651035    4.953105   10.117970 0 0 0 0.0 0.0 0.0
    183 2    1.100690    5.503450    0.000000    1    5    1    1.100690    5.503450    0.000000
    184 2    1.651035    6.053795    0.778305    1    5    0    1.651035    6.053795    0.778305
    185 3    1.100690    5.503450    1.556611    1    5    0    1.100690    5.503450    1.556611
    186 3    1.651035    6.053795    2.334916    1    5    0    1.651035    6.053795    2.334916
    187 3    1.100690    5.503450    3.113221 0 0 0 0.0 0.0 0.0
    188 3    1.651035    6.053795    3.891527 0 0 0 0.0 0.0 0.0
    189 3    1.100690    5.503450    4.669832 0 0 0 0.0 0.0 0.0
    190 3    1.651035    6.053795    5.448138 0 0 0 0.0 0.0 0.0
    191 3    1.100690    5.503450    6.226443 0 0 0 0.0 0.0 0.0
    192 3    1.651035    6.053795    7.004748 0 0 0 0.0 0.0 0.0
    193 3    1.100690    5.503450    7.783054 0 0 0 0.0 0.0 0.0
    194 3    1.651035    6.053795    8.561359 0 0 0 0.0 0.0 0.0
    195 3    1.100690    5.503450    9.339664 0 0 0 0.0 0.0 0.0
    196 3    1.651035    6.053795   10.117970 0 0 0 0.0 0.0 0.0
    197 2    1.100690    6.604140    0.000000    1    6    1    1.100690    6.604140    0.000000
    198 2    1.651035    7.154485    0.778305    1    6    0    1.651035    7.154485    0.778305
    199 3    1.100690    6.604140    1.556611    1    6    0    1.100690    6.604140    1.556611
    200 3    1.651035    7.154485    2.334916    1    6    0    1.651035    7.154485    2.334916
    201 3    1.100690    6.604140    3.113221 0 0 0 0.0 0.0 0.0
    202 3    1.651035    7.154485    3.891527 0 0 0 0.0 0.0 0.0
    203 3    1.100690    6.604140    4.669832 0 0 0 0.0 0.0 0.0
    204 3    1.651035    7.154485    5.448138 0 0 0 0.0 0.0 0.0
    205 3    1.100690    6.604140    6.226443 0 0 0 0.0 0.0 0.0
    206 3    1.651035    7.154485    7.004748 0 0 0 0.0 0.0 0.0
    207 3    1.100690    6.604140    7.783054 0 0 0 0.0 0.0 0.0
    208 3    1.651035    7.154485    8.561359 0 0 0 0.0 0.0 0.0
    209 3    1.100690    6.604140    9.339664 0 0 0 0.0 0.0 0.0
    210 3    1.651035    7.154485   10.117970 0 0 0 0.0 0.0 0.0
    211 2    1.100690    7.704830    0.000000    1    7    1    1.100690    7.704830    0.000000
    212 2    1.651035    8.255175    0.778305    1    7    0    1.651035    8.255175    0.778305
    213 3    1.100690    7.704830    1.556611    1    7    0    1.100690    7.704830    1.556611
    214 3    1.651035    8.255175    2.334916    1    7    0    1.651035    8.255175    2.334916
    215 3    1.100690    7.704830    3.113221 0 0 0 0.0 0.0 0.0
    216 3    1.651035    8.255175    3.891527 0 0 0 0.0 0.0 0.0
    217 3    1.100690    7.704830    4.669832 0 0 0 0.0 0.0 0.0
    218 3    1.651035    8.255175    5.448138 0 0 0 0.0 0.0 0.0
    219 3    1.100690    7.704830    6.226443 0 0 0 0.0 0.0 0.0
    220 3    1.651035    8.255175    7.004748 0 0 0 0.0 0.0 0.0
    221 3    1.100690    7.704830    7.783054 0 0 0 0.0 0.0 0.0
    222 3    1.651035    8.255175    8.561359 0 0 0 0.0 0.0 0.0
    223 3    1.100690    7.704830    9.339664 0 0 0 0.0 0.0 0.0
    224 3    1.651035    8.255175   10.117970 0 0 0 0.0 0.0 0.0
    225 2    2.201380    0.000000    0.000000    2    0    1    2.201380    0.000000    0.000000
    226 2    2.751725    0.550345    0.778305    2    0    0    2.751725    0.550345    0.778305
    227 3    2.201380    0.000000    1.556611    2    0    0    2.201380    0.000000    1.556611
    228 3    2.751725    0.550345    2.334916    2    0    0    2.751725    0.550345    2.334916
    229 3    2.201380    0.000000    3.113221 0 0 0 0.0 0.0 0.0
    230 3    2.751725    0.550345    3.891527 0 0 0 0.0 0.0 0.0
    231 3    2.201380    0.000000    4.669832 0 0 0 0.0 0.0 0.0
    232 3    2.751725    0.550345    5.448138 0 0 0 0.0 0.0 0.0
    233 3    2.201380    0.000000    6.226443 0 0 0 0.0 0.0 0.0
    234 3    2.751725    0.550345    7.004748 0 0 0 0.0 0.0 0.0
    235 3    2.201380    0.000000    7.783054 0 0 0 0.0 0.0 0.0
    236 3    2.751725    0.550345    8.561359 0 0 0 0.0 0.0 0.0
    237 3    2.201380    0.000000    9.339664 0 0 0 0.0 0.0 0.0
    238 3    2.751725    0.550345   10.117970 0 0 0 0.0 0.0 0.0
    239 2    2.201380    1.100690    0.000000    2    1    1    2.201380    1.100690    0.000000
    240 2    2.751725    1.651035    0.778305    2    1    0    2.751725    1.651035    0.778305
    241 3    2.201380    1.100690    1.556611    2    1    0    2.201380    1.100690    1.556611
    242 3    2.751725    1.651035    2.334916    2    1    0    2.751725    1.651035    2.334916
    243 3    2.201380    1.100690    3.113221 0 0 0 0.0 0.0 0.0
    244 3    2.751725    1.651035    3.891527 0 0 0 0.0 0.0 0.0
    245 3    2.201380    1.100690    4.669832 0 0 0 0.0 0.0 0.0
    246 3    2.751725    1.651035    5.448138 0 0 0 0.0 0.0 0.0
    247 3    2.201380    1.100690    6.226443 0 0 0 0.0 0.0 0.0
    248 3    2.751725    1.651035    7.004748 0 0 0 0.0 0.0 0.0
    249 3    2.201380    1.100690    7.783054 0 0 0 0.0 0.0 0.0
    250 3    2.751725    1.651035    8.561359 0 0 0 0.0 0.0 0.0
    251 3    2.201380    1.100690    9.339664 0 0 0 0.0 0.0 0.0
    252 3    2.751725    1.651035   10.117970 0 0 0 0.0 0.0 0.0
    253 2    2.201380    2.201380    0.000000    2    2    1    2.201380    2.201380    0.000000
    254 2    2.751725    2.751725    0.778305    2    2    0    2.751725    2.751725    0.778305
    255 3    2.201380    2.201380    1.556611    2    2    0    2.201380    2.201380    1.556611
    256 3    2.751725    2.751725    2.334916    2    2    0    2.751725    2.751725    2.334916
    257 3    2.201380    2.201380    3.113221 0 0 0 0.0 0.0 0.0
    258 3    2.751725    2.751725    3.891527 0 0 0 0.0 0.0 0.0
    259 3    2.201380    2.201380    4.669832 0 0 0 0.0 0.0 0.0
    260 3    2.751725    2.751725    5.448138 0 0 0 0.0 0.0 0.0
    261 3    2.201380    2.201380    6.226443 0 0 0 0.0 0.0 0.0
    262 3    2.751725    2.751725    7.004748 0 0 0 0.0 0.0 0.0
    263 3    2.201380    2.201380    7.783054 0 0 0 0.0 0.0 0.0
    264 3    2.751725    2.751725    8.561359 0 0 0 0.0 0.0 0.0
    265 3    2.201380    2.201380    9.339664 0 0 0 0.0 0.0 0.0
    266 3    2.751725    2.751725   10.117970 0 0 0 0.0 0.0 0.0
    267 2    2.201380    3.302070    0.000000    2    3    1    2.201380    3.302070    0.000000
    268 2    2.751725    3.852415    0.778305    2    3    0    2.751725    3.852415    0.778305
    269 3    2.201380    3.302070    1.556611    2    3    0    2.201380    3.302070    1.556611
    270 3    2.751725    3.852415    2.334916    2    3    0    2.751725    3.852415    2.334916
    271 3    2.201380    3.302070    3.113221 0 0 0 0.0 0.0 0.0
    272 3    2.751725    3.852415    3.891527 0 0 0 0.0 0.0 0.0
    273 3    2.201380    3.302070    4.669832 0 0 0 0.0 0.0 0.0
    274 3    2.751725    3.852415    5.448138 0 0 0 0.0 0.0 0.0
    275 3    2.201380    3.302070    6.226443 0 0 0 0.0 0.0 0.0
    276 3    2.751725    3.852415    7.004748 0 0 0 0.0 0.0 0.0
    277 3    2.201380    3.302070    7.783054 0 0 0 0.0 0.0 0.0
    278 3    2.751725    3.852415    8.561359 0 0 0 0.0 0.0 0.0
    279 3    2.201380    3.302070    9.339664 0 0 0 0.0 0.0 0.0
    280 3    2.751725    3.852415   10.117970 0 0 0 0.0 0.0 0.0
    281 2    2.201380    4.402760    0.000000    2    4    1    2.201380    4.402760    0.000000
    282 2    2.751725    4.953105    0.778305    2    4    0    2.751725    4.953105    0.778305
    283 3    2.201380    4.402760    1.556611    2    4    0    2.201380    4.402760    1.556611
    284 3    2.751725    4.953105    2.334916    2    4    0    2.751725    4.953105    2.334916
    285 3    2.201380    4.402760    3.113221 0 0 0 0.0 0.0 0.0
    286 3    2.751725    4.953105    3.891527 0 0 0 0.0 0.0 0.0
    287 3    2.201380    4.402760    4.669832 0 0 0 0.0 0.0 0.0
    288 3    2.751725    4.953105    5.448138 0 0 0 0.0 0.0 0.0
    289 3    2.201380    4.402760    6.226443 0 0 0 0.0 0.0 0.0
    290 3    2.751725    4.953105    7.004748 0 0 0 0.0 0.0 0.0
    291 3    2.201380    4.402760    7.783054 0 0 0 0.0 0.0 0.0
    292 3    2.751725    4.953105    8.561359 0 0 0 0.0 0.0 0.0
    293 3    2.201380    4.402760    9.339664 0 0 0 0.0 0.0 0.0
    294 3    2.751725    4.953105   10.117970 0 0 0 0.0 0.0 0.0
    295 2    2.201380    5.503450    0.000000    2    5    1    2.201380    5.503450    0.000000
    296 2    2.751725    6.053795    0.778305    2    5    0    2.751725    6.053795    0.778305
    297 3    2.201380    5.503450    1.556611    2    5    0    2.201380    5.503450    1.556611
    298 3    2.751725    6.053795    2.334916    2    5    0    2.751725    6.053795    2.334916
    299 3    2.201380    5.503450    3.113221 0 0 0 0.0 0.0 0.0
    300 3    2.751725    6.053795    3.891527 0 0 0 0.0 0.0 0.0
    301 3    2.201380    5.503450    4.669832 0 0 0 0.0 0.0 0.0
    302 3    2.751725    6.053795    5.448138 0 0 0 0.0 0.0 0.0
    303 3    2.201380    5.503450    6.226443 0 0 0 0.0 0.0 0.0
    304 3    2.751725    6.053795    7.004748 0 0 0 0.0 0.0 0.0
    305 3    2.201380    5.503450    7.783054 0 0 0 0.0 0.0 0.0
    306 3    2.751725    6.053795    8.561359 0 0 0 0.0 0.0 0.0
    307 3    2.201380    5.503450    9.339664 0 0 0 0.0 0.0 0.0
    308 3    2.751725    6.053795   10.117970 0 0 0 0.0 0.0 0.0
    309 2    2.201380    6.604140    0.000000    2    6    1    2.201380    6.604140    0.000000
    310 2    2.751725    7.154485    0.778305    2    6    0    2.751725    7.154485    0.778305
    311 3    2.201380    6.604140    1.556611    2    6    0    2.201380    6.604140    1.556611
    312 3    2.751725    7.154485    2.334916    2    6    0    2.751725    7.154485    2.334916
    313 3    2.201380    6.604140    3.113221 0 0 0 0.0 0.0 0.0
    314 3    2.751725    7.154485    3.891527 0 0 0 0.0 0.0 0.0
    315 3    2.201380    6.604140    4.669832 0 0 0 0.0 0.0 0.0
    316 3    2.751725    7.154485    5.448138 0 0 0 0.0 0.0 0.0
    317 3    2.201380    6.604140    6.226443 0 0 0 0.0 0.0 0.0
    318 3    2.751725    7.154485    7.004748 0 0 0 0.0 0.0 0.0
    319 3    2.201380    6.604140    7.783054 0 0 0 0.0 0.0 0.0
    320 3    2.751725    7.154485    8.561359 0 0 0 0.0 0.0 0.0
    321 3    2.201380    6.604140    9.339664 0 0 0 0.0 0.0 0.0
    322 3    2.751725    7.154485   10.117970 0 0 0 0.0 0.0 0.0
    323 2    2.201380    7.704830    0.000000    2    7    1    2.201380    7.704830    0.000000
    324 2    2.751725    8.255175    0.778305    2    7    0    2.751725    8.255175    0.778305
    325 3    2.201380    7.704830    1.556611    2    7    0    2.201380    7.704830    1.556611
    326 3    2.751725    8.255175    2.334916    2    7    0    2.751725    8.255175    2.334916
    327 3    2.201380    7.704830    3.113221 0 0 0 0.0 0.0 0.0
    328 3    2.751725    8.255175    3.891527 0 0 0 0.0 0.0 0.0
    329 3    2.201380    7.704830    4.669832 0 0 0 0.0 0.0 0.0
    330 3    2.751725    8.255175    5.448138 0 0 0 0.0 0.0 0.0
    331 3    2.201380    7.704830    6.226443 0 0 0 0.0 0.0 0.0
    332 3    2.751725    8.255175    7.004748 0 0 0 0.0 0.0 0.0
    333 3    2.201380    7.704830    7.783054 0 0 0 0.0 0.0 0.0
    334 3    2.751725    8.255175    8.561359 0 0 0 0.0 0.0 0.0
    335 3    2.201380    7.704830    9.339664 0 0 0 0.0 0.0 0.0
    336 3    2.751725    8.255175   10.117970 0 0 0 0.0 0.0 0.0
    337 2    3.302070    0.000000    0.000000    3    0    1    3.302070    0.000000    0.000000
    338 2    3.852415    0.550345    0.778305    3    0    0    3.852415    0.550345    0.778305
    339 3    3.302070    0.000000    1.556611    3    0    0    3.302070    0.000000    1.556611
    340 3    3.852415    0.550345    2.334916    3    0    0    3.852415    0.550345    2.334916
    341 3    3.302070    0.000000    3.113221 0 0 0 0.0 0.0 0.0
    342 3    3.852415    0.550345    3.891527 0 0 0 0.0 0.0 0.0
    343 3    3.302070    0.000000    4.669832 0 0 0 0.0 0.0 0.0
    344 3    3.852415    0.550345    5.448138 0 0 0 0.0 0.0 0.0
    345 3    3.302070    0.000000    6.226443 0 0 0 0.0 0.0 0.0
    346 3    3.852415    0.550345    7.004748 0 0 0 0.0 0.0 0.0
    347 3    3.302070    0.000000    7.783054 0 0 0 0.0 0.0 0.0
    348 3    3.852415    0.550345    8.561359 0 0 0 0.0 0.0 0.0
    349 3    3.302070    0.000000    9.339664 0 0 0 0.0 0.0 0.0
    350 3    3.852415    0.550345   10.117970 0 0 0 0.0 0.0 0.0
    351 2    3.302070    1.100690    0.000000    3    1    1    3.302070    1.100690    0.000000
    352 2    3.852415    1.651035    0.778305    3    1    0    3.852415    1.651035    0.778305
    353 3    3.302070    1.100690    1.556611    3    1    0    3.302070    1.100690    1.556611
    354 3    3.852415    1.651035    2.334916    3    1    0    3.852415    1.651035    2.334916
    355 3    3.302070    1.100690    3.113221 0 0 0 0.0 0.0 0.0
    356 3    3.852415    1.651035    3.891527 0 0 0 0.0 0.0 0.0
    357 3    3.302070    1.100690    4.669832 0 0 0 0.0 0.0 0.0
    358 3    3.852415    1.651035    5.448138 0 0 0 0.0 0.0 0.0
    359 3    3.302070    1.100690    6.226443 0 0 0 0.0 0.0 0.0
    360 3    3.852415    1.651035    7.004748 0 0 0 0.0 0.0 0.0
    361 3    3.302070    1.100690    7.783054 0 0 0 0.0 0.0 0.0
    362 3    3.852415    1.651035    8.561359 0 0 0 0.0 0.0 0.0
    363 3    3.302070    1.100690    9.339664 0 0 0 0.0 0.0 0.0
    364 3    3.852415    1.651035   10.117970 0 0 0 0.0 0.0 0.0
    365 2    3.302070    2.201380    0.000000    3    2    1    3.302070    2.201380    0.000000
    366 2    3.852415    2.751725    0.778305    3    2    0    3.852415    2.751725    0.778305
    367 3    3.302070    2.201380    1.556611    3    2    0    3.302070    2.201380    1.556611
    368 3    3.852415    2.751725    2.334916    3    2    0    3.852415    2.751725    2.334916
    369 3    3.302070    2.201380    3.113221 0 0 0 0.0 0.0 0.0
    370 3    3.852415    2.751725    3.891527 0 0 0 0.0 0.0 0.0
    371 3    3.302070    2.201380    4.669832 0 0 0 0.0 0.0 0.0
    372 3    3.852415    2.751725    5.448138 0 0 0 0.0 0.0 0.0
    373 3    3.302070    2.201380    6.226443 0 0 0 0.0 0.0 0.0
    374 3    3.852415    2.751725    7.004748 0 0 0 0.0 0.0 0.0
    375 3    3.302070    2.201380    7.783054 0 0 0 0.0 0.0 0.0
    376 3    3.852415    2.751725    8.561359 0 0 0 0.0 0.0 0.0
    377 3    3.302070    2.201380    9.339664 0 0 0 0.0 0.0 0.0
    378 3    3.852415    2.751725   10.117970 0 0 0 0.0 0.0 0.0
    379 2    3.302070    3.302070    0.000000    3    3    1    3.302070    3.302070    0.000000
    380 2    3.852415    3.852415    0.778305    3    3    0    3.852415    3.852415    0.778305
    381 3    3.302070    3.302070    1.556611    3    3    0    3.302070    3.302070    1.556611
    382 3    3.852415    3.852415    2.334916    3    3    0    3.852415    3.852415    2.334916
    383 3    3.302070    3.302070    3.113221 0 0 0 0.0 0.0 0.0
    384 3    3.852415    3.852415    3.891527 0 0 0 0.0 0.0 0.0
    385 3    3.302070    3.302070    4.669832 0 0 0 0.0 0.0 0.0
    386 3    3.852415    3.852415    5.448138 0 0 0 0.0 0.0 0.0
    387 3    3.302070    3.302070    6.226443 0 0 0 0.0 0.0 0.0
    388 3    3.852415    3.852415    7.004748 0 0 0 0.0 0.0 0.0
    389 3    3.302070    3.302070    7.783054 0 0 0 0.0 0.0 0.0
    390 3    3.852415    3.852415    8.561359 0 0 0 0.0 0.0 0.0
    391 3    3.302070    3.302070    9.339664 0 0 0 0.0 0.0 0.0
    392 3    3.852415    3.852415   10.117970 0 0 0 0.0 0.0 0.0
    393 2    3.302070    4.402760    0.000000    3    4    1    3.302070    4.402760    0.000000
    394 2    3.852415    4.953105    0.778305    3    4    0    3.852415    4.953105    0.778305
    395 3    3.302070    4.402760    1.556611    3    4    0    3.302070    4.402760    1.556611
    396 3    3.852415    4.953105    2.334916    3    4    0    3.852415    4.953105    2.334916
    397 3    3.302070    4.402760    3.113221 0 0 0 0.0 0.0 0.0
    398 3    3.852415    4.953105    3.891527 0 0 0 0.0 0.0 0.0
    399 3    3.302070    4.402760    4.669832 0 0 0 0.0 0.0 0.0
    400 3    3.852415    4.953105    5.448138 0 0 0 0.0 0.0 0.0
    401 3    3.302070    4.402760    6.226443 0 0 0 0.0 0.0 0.0
    402 3    3.852415    4.953105    7.004748 0 0 0 0.0 0.0 0.0
    403 3    3.302070    4.402760    7.783054 0 0 0 0.0 0.0 0.0
    404 3    3.852415    4.953105    8.561359 0 0 0 0.0 0.0 0.0
    405 3    3.302070    4.402760    9.339664 0 0 0 0.0 0.0 0.0