
        64 atoms

4 atom types

0.0         8.9796964 xlo xhi
0.0         8.9796964 ylo yhi
      -13.969129       45.399668 zlo zhi

Masses

1 1.000000
2 1.000000
3 1.000000
4 1.000000

Atoms
 
      1 2    0.561231    0.561231    0.000000    0    0    0    0.561231    0.561231    0.000000
      2 2    0.561231    1.683693    0.000000    0    1    0    0.561231    1.683693    0.000000
      3 2    0.561231    2.806155    0.000000    0    2    0    0.561231    2.806155    0.000000
      4 2    0.561231    3.928617    0.000000    0    3    0    0.561231    3.928617    0.000000
      5 2    0.561231    5.051079    0.000000    0    4    0    0.561231    5.051079    0.000000
      6 2    0.561231    6.173541    0.000000    0    5    0    0.561231    6.173541    0.000000
      7 2    0.561231    7.296003    0.000000    0    6    0    0.561231    7.296003    0.000000
      8 2    0.561231    8.418465    0.000000    0    7    0    0.561231    8.418465    0.000000
      9 2    1.683693    0.561231    0.000000    1    0    0    1.683693    0.561231    0.000000
     10 2    1.683693    1.683693    0.000000    1    1    0    1.683693    1.683693    0.000000
     11 2    1.683693    2.806155    0.000000    1    2    0    1.683693    2.806155    0.000000
     12 2    1.683693    3.928617    0.000000    1    3    0    1.683693    3.928617    0.000000
     13 2    1.683693    5.051079    0.000000    1    4    0    1.683693    5.051079    0.000000
     14 2    1.683693    6.173541    0.000000    1    5    0    1.683693    6.173541    0.000000
     15 2    1.683693    7.296003    0.000000    1    6    0    1.683693    7.296003    0.000000
     16 2    1.683693    8.418465    0.000000    1    7    0    1.683693    8.418465    0.000000
     17 2    2.806155    0.561231    0.000000    2    0    0    2.806155    0.561231    0.000000
     18 2    2.806155    1.683693    0.000000    2    1    0    2.806155    1.683693    0.000000
     19 2    2.806155    2.806155    0.000000    2    2    0    2.806155    2.806155    0.000000
     20 2    2.806155    3.928617    0.000000    2    3    0    2.806155    3.928617    0.000000
     21 2    2.806155    5.051079    0.000000    2    4    0    2.806155    5.051079    0.000000
     22 2    2.806155    6.173541    0.000000    2    5    0    2.806155    6.173541    0.000000
     23 2    2.806155    7.296003    0.000000    2    6    0    2.806155    7.296003    0.000000
     24 2    2.806155    8.418465    0.000000    2    7    0    2.806155    8.418465    0.000000
     25 2    3.928617    0.561231    0.000000    3    0    0    3.928617    0.561231    0.000000
     26 2    3.928617    1.683693    0.000000    3    1    0    3.928617    1.683693    0.000000
     27 2    3.928617    2.806155    0.000000    3    2    0    3.928617    2.806155    0.000000
     28 2    3.928617    3.928617    0.000000    3    3    0    3.928617    3.928617    0.000000
     29 2    3.928617    5.051079    0.000000    3    4    0    3.928617    5.051079    0.000000
     30 2    3.928617    6.173541    0.000000    3    5    0    3.928617    6.173541    0.000000
     31 2    3.928617    7.296003    0.000000    3    6    0    3.928617    7.296003    0.000000
     32 2    3.928617    8.418465    0.000000    3    7    0    3.928617    8.418465    0.000000
     33 2    5.051079    0.561231    0.000000    4    0    0    5.051079    0.561231    0.000000
     34 2    5.051079    1.683693    0.000000    4    1    0    5.051079    1.683693    0.000000
     35 2    5.051079    2.806155    0.000000    4    2    0    5.051079    2.806155    0.000000
     36 2    5.051079    3.928617    0.000000    4    3    0    5.051079    3.928617    0.000000
     37 2    5.051079    5.051079    0.000000    4    4    0    5.051079    5.051079    0.000000
     38 2    5.051079    6.173541    0.000000    4    5    0    5.051079    6.173541    0.000000
     39 2    5.051079    7.296003    0.000000    4    6    0    5.051079    7.296003    0.000000
     40 2    5.051079    8.418465    0.000000    4    7    0    5.051079    8.418465    0.000000
     41 2    6.173541    0.561231    0.000000    5    0    0    6.173541    0.561231    0.000000
     42 2    6.173541    1.683693    0.000000    5    1    0    6.173541    1.683693    0.000000
     43 2    6.173541    2.806155    0.000000    5    2    0    6.173541    2.806155    0.000000
     44 2    6.173541    3.928617    0.000000    5    3    0    6.173541    3.928617    0.000000
     45 2    6.173541    5.051079    0.000000    5    4    0    6.173541    5.051079    0.000000
     46 2    6.173541    6.173541    0.000000    5    5    0    6.173541    6.173541    0.000000
     47 2    6.173541    7.296003    0.000000    5    6    0    6.173541    7.296003    0.000000
     48 2    6.173541    8.418465    0.000000    5    7    0    6.173541    8.418465    0.000000
     49 2    7.296003    0.561231    0.000000    6    0    0    7.296003    0.561231    0.000000
     50 2    7.296003    1.683693    0.000000    6    1    0    7.296003    1.683693    0.000000
     51 2    7.296003    2.806155    0.000000    6    2    0    7.296003    2.806155    0.000000
     52 2    7.296003    3.928617    0.000000    6    3    0    7.296003    3.928617    0.000000
     53 2    7.296003    5.051079    0.000000    6    4    0    7.296003    5.051079    0.000000
     54 2    7.296003    6.173541    0.000000    6    5    0    7.296003    6.173541    0.000000
     55 2    7.296003    7.296003    0.000000    6    6    0    7.296003    7.296003    0.000000
     56 2    7.296003    8.418465    0.000000    6    7    0    7.296003    8.418465    0.000000
     57 2    8.418465    0.561231    0.000000    7    0    0    8.418465    0.561231    0.000000
     58 2    8.418465    1.683693    0.000000    7    1    0    8.418465    1.683693    0.000000
     59 2    8.418465    2.806155    0.000000    7    2    0    8.418465    2.806155    0.000000
     60 2    8.418465    3.928617    0.000000    7    3    0    8.418465    3.928617    0.000000
     61 2    8.418465    5.051079    0.000000    7    4    0    8.418465    5.051079    0.000000
     62 2    8.418465    6.173541    0.000000    7    5    0    8.418465    6.173541    0.000000
     63 2    8.418465    7.296003    0.000000    7    6    0    8.418465    7.296003    0.000000
     64 2    8.418465    8.418465    0.000000    7    7    0    8.418465    8.418465    0.000000
