
         768 atoms

4 atom types

0.0         8.9008000 xlo xhi
0.0         8.9008000 ylo yhi
      -3.7762897       12.272941 zlo zhi

Masses

1 1.000000
2 1.000000
3 1.000000
4 1.000000

Atoms
 
      1 2      0.0000      0.0000      0.0000
      2 2      0.5563      0.5563      0.7867
      3 1      0.0000      0.0000      1.5735
      4 1      0.5563      0.5563      2.3602
      5 4      0.0000      0.0000      3.1469
      6 4      0.5563      0.5563      3.9336
      7 3      0.0000      0.0000      4.7204
      8 3      0.5563      0.5563      5.5071
      9 3      0.0000      0.0000      6.2938
     10 3      0.5563      0.5563      7.0805
     11 3      0.0000      0.0000      7.8673
     12 3      0.5563      0.5563      8.6540
     13 2      0.0000      1.1126      0.0000
     14 2      0.5563      1.6689      0.7867
     15 1      0.0000      1.1126      1.5735
     16 1      0.5563      1.6689      2.3602
     17 4      0.0000      1.1126      3.1469
     18 4      0.5563      1.6689      3.9336
     19 3      0.0000      1.1126      4.7204
     20 3      0.5563      1.6689      5.5071
     21 3      0.0000      1.1126      6.2938
     22 3      0.5563      1.6689      7.0805
     23 3      0.0000      1.1126      7.8673
     24 3      0.5563      1.6689      8.6540
     25 2      0.0000      2.2252      0.0000
     26 2      0.5563      2.7815      0.7867
     27 1      0.0000      2.2252      1.5735
     28 1      0.5563      2.7815      2.3602
     29 4      0.0000      2.2252      3.1469
     30 4      0.5563      2.7815      3.9336
     31 3      0.0000      2.2252      4.7204
     32 3      0.5563      2.7815      5.5071
     33 3      0.0000      2.2252      6.2938
     34 3      0.5563      2.7815      7.0805
     35 3      0.0000      2.2252      7.8673
     36 3      0.5563      2.7815      8.6540
     37 2      0.0000      3.3378      0.0000
     38 2      0.5563      3.8941      0.7867
     39 1      0.0000      3.3378      1.5735
     40 1      0.5563      3.8941      2.3602
     41 4      0.0000      3.3378      3.1469
     42 4      0.5563      3.8941      3.9336
     43 3      0.0000      3.3378      4.7204
     44 3      0.5563      3.8941      5.5071
     45 3      0.0000      3.3378      6.2938
     46 3      0.5563      3.8941      7.0805
     47 3      0.0000      3.3378      7.8673
     48 3      0.5563      3.8941      8.6540
     49 2      0.0000      4.4504      0.0000
     50 2      0.5563      5.0067      0.7867
     51 1      0.0000      4.4504      1.5735
     52 1      0.5563      5.0067      2.3602
     53 4      0.0000      4.4504      3.1469
     54 4      0.5563      5.0067      3.9336
     55 3      0.0000      4.4504      4.7204
     56 3      0.5563      5.0067      5.5071
     57 3      0.0000      4.4504      6.2938
     58 3      0.5563      5.0067      7.0805
     59 3      0.0000      4.4504      7.8673
     60 3      0.5563      5.0067      8.6540
     61 2      0.0000      5.5630      0.0000
     62 2      0.5563      6.1193      0.7867
     63 1      0.0000      5.5630      1.5735
     64 1      0.5563      6.1193      2.3602
     65 4      0.0000      5.5630      3.1469
     66 4      0.5563      6.1193      3.9336
     67 3      0.0000      5.5630      4.7204
     68 3      0.5563      6.1193      5.5071
     69 3      0.0000      5.5630      6.2938
     70 3      0.5563      6.1193      7.0805
     71 3      0.0000      5.5630      7.8673
     72 3      0.5563      6.1193      8.6540
     73 2      0.0000      6.6756      0.0000
     74 2      0.5563      7.2319      0.7867
     75 1      0.0000      6.6756      1.5735
     76 1      0.5563      7.2319      2.3602
     77 4      0.0000      6.6756      3.1469
     78 4      0.5563      7.2319      3.9336
     79 3      0.0000      6.6756      4.7204
     80 3      0.5563      7.2319      5.5071
     81 3      0.0000      6.6756      6.2938
     82 3      0.5563      7.2319      7.0805
     83 3      0.0000      6.6756      7.8673
     84 3      0.5563      7.2319      8.6540
     85 2      0.0000      7.7882      0.0000
     86 2      0.5563      8.3445      0.7867
     87 1      0.0000      7.7882      1.5735
     88 1      0.5563      8.3445      2.3602
     89 4      0.0000      7.7882      3.1469
     90 4      0.5563      8.3445      3.9336
     91 3      0.0000      7.7882      4.7204
     92 3      0.5563      8.3445      5.5071
     93 3      0.0000      7.7882      6.2938
     94 3      0.5563      8.3445      7.0805
     95 3      0.0000      7.7882      7.8673
     96 3      0.5563      8.3445      8.6540
     97 2      1.1126      0.0000      0.0000
     98 2      1.6689      0.5563      0.7867
     99 1      1.1126      0.0000      1.5735
    100 1      1.6689      0.5563      2.3602
    101 4      1.1126      0.0000      3.1469
    102 4      1.6689      0.5563      3.9336
    103 3      1.1126      0.0000      4.7204
    104 3      1.6689      0.5563      5.5071
    105 3      1.1126      0.0000      6.2938
    106 3      1.6689      0.5563      7.0805
    107 3      1.1126      0.0000      7.8673
    108 3      1.6689      0.5563      8.6540
    109 2      1.1126      1.1126      0.0000
    110 2      1.6689      1.6689      0.7867
    111 1      1.1126      1.1126      1.5735
    112 1      1.6689      1.6689      2.3602
    113 4      1.1126      1.1126      3.1469
    114 4      1.6689      1.6689      3.9336
    115 3      1.1126      1.1126      4.7204
    116 3      1.6689      1.6689      5.5071
    117 3      1.1126      1.1126      6.2938
    118 3      1.6689      1.6689      7.0805
    119 3      1.1126      1.1126      7.8673
    120 3      1.6689      1.6689      8.6540
    121 2      1.1126      2.2252      0.0000
    122 2      1.6689      2.7815      0.7867
    123 1      1.1126      2.2252      1.5735
    124 1      1.6689      2.7815      2.3602
    125 4      1.1126      2.2252      3.1469
    126 4      1.6689      2.7815      3.9336
    127 3      1.1126      2.2252      4.7204
    128 3      1.6689      2.7815      5.5071
    129 3      1.1126      2.2252      6.2938
    130 3      1.6689      2.7815      7.0805
    131 3      1.1126      2.2252      7.8673
    132 3      1.6689      2.7815      8.6540
    133 2      1.1126      3.3378      0.0000
    134 2      1.6689      3.8941      0.7867
    135 1      1.1126      3.3378      1.5735
    136 1      1.6689      3.8941      2.3602
    137 4      1.1126      3.3378      3.1469
    138 4      1.6689      3.8941      3.9336
    139 3      1.1126      3.3378      4.7204
    140 3      1.6689      3.8941      5.5071
    141 3      1.1126      3.3378      6.2938
    142 3      1.6689      3.8941      7.0805
    143 3      1.1126      3.3378      7.8673
    144 3      1.6689      3.8941      8.6540
    145 2      1.1126      4.4504      0.0000
    146 2      1.6689      5.0067      0.7867
    147 1      1.1126      4.4504      1.5735
    148 1      1.6689      5.0067      2.3602
    149 4      1.1126      4.4504      3.1469
    150 4      1.6689      5.0067      3.9336
    151 3      1.1126      4.4504      4.7204
    152 3      1.6689      5.0067      5.5071
    153 3      1.1126      4.4504      6.2938
    154 3      1.6689      5.0067      7.0805
    155 3      1.1126      4.4504      7.8673
    156 3      1.6689      5.0067      8.6540
    157 2      1.1126      5.5630      0.0000
    158 2      1.6689      6.1193      0.7867
    159 1      1.1126      5.5630      1.5735
    160 1      1.6689      6.1193      2.3602
    161 4      1.1126      5.5630      3.1469
    162 4      1.6689      6.1193      3.9336
    163 3      1.1126      5.5630      4.7204
    164 3      1.6689      6.1193      5.5071
    165 3      1.1126      5.5630      6.2938
    166 3      1.6689      6.1193      7.0805
    167 3      1.1126      5.5630      7.8673
    168 3      1.6689      6.1193      8.6540
    169 2      1.1126      6.6756      0.0000
    170 2      1.6689      7.2319      0.7867
    171 1      1.1126      6.6756      1.5735
    172 1      1.6689      7.2319      2.3602
    173 4      1.1126      6.6756      3.1469
    174 4      1.6689      7.2319      3.9336
    175 3      1.1126      6.6756      4.7204
    176 3      1.6689      7.2319      5.5071
    177 3      1.1126      6.6756      6.2938
    178 3      1.6689      7.2319      7.0805
    179 3      1.1126      6.6756      7.8673
    180 3      1.6689      7.2319      8.6540
    181 2      1.1126      7.7882      0.0000
    182 2      1.6689      8.3445      0.7867
    183 1      1.1126      7.7882      1.5735
    184 1      1.6689      8.3445      2.3602
    185 4      1.1126      7.7882      3.1469
    186 4      1.6689      8.3445      3.9336
    187 3      1.1126      7.7882      4.7204
    188 3      1.6689      8.3445      5.5071
    189 3      1.1126      7.7882      6.2938
    190 3      1.6689      8.3445      7.0805
    191 3      1.1126      7.7882      7.8673
    192 3      1.6689      8.3445      8.6540
    193 2      2.2252      0.0000      0.0000
    194 2      2.7815      0.5563      0.7867
    195 1      2.2252      0.0000      1.5735
    196 1      2.7815      0.5563      2.3602
    197 4      2.2252      0.0000      3.1469
    198 4      2.7815      0.5563      3.9336
    199 3      2.2252      0.0000      4.7204
    200 3      2.7815      0.5563      5.5071
    201 3      2.2252      0.0000      6.2938
    202 3      2.7815      0.5563      7.0805
    203 3      2.2252      0.0000      7.8673
    204 3      2.7815      0.5563      8.6540
    205 2      2.2252      1.1126      0.0000
    206 2      2.7815      1.6689      0.7867
    207 1      2.2252      1.1126      1.5735
    208 1      2.7815      1.6689      2.3602
    209 4      2.2252      1.1126      3.1469
    210 4      2.7815      1.6689      3.9336
    211 3      2.2252      1.1126      4.7204
    212 3      2.7815      1.6689      5.5071
    213 3      2.2252      1.1126      6.2938
    214 3      2.7815      1.6689      7.0805
    215 3      2.2252      1.1126      7.8673
    216 3      2.7815      1.6689      8.6540
    217 2      2.2252      2.2252      0.0000
    218 2      2.7815      2.7815      0.7867
    219 1      2.2252      2.2252      1.5735
    220 1      2.7815      2.7815      2.3602
    221 4      2.2252      2.2252      3.1469
    222 4      2.7815      2.7815      3.9336
    223 3      2.2252      2.2252      4.7204
    224 3      2.7815      2.7815      5.5071
    225 3      2.2252      2.2252      6.2938
    226 3      2.7815      2.7815      7.0805
    227 3      2.2252      2.2252      7.8673
    228 3      2.7815      2.7815      8.6540
    229 2      2.2252      3.3378      0.0000
    230 2      2.7815      3.8941      0.7867
    231 1      2.2252      3.3378      1.5735
    232 1      2.7815      3.8941      2.3602
    233 4      2.2252      3.3378      3.1469
    234 4      2.7815      3.8941      3.9336
    235 3      2.2252      3.3378      4.7204
    236 3      2.7815      3.8941      5.5071
    237 3      2.2252      3.3378      6.2938
    238 3      2.7815      3.8941      7.0805
    239 3      2.2252      3.3378      7.8673
    240 3      2.7815      3.8941      8.6540
    241 2      2.2252      4.4504      0.0000
    242 2      2.7815      5.0067      0.7867
    243 1      2.2252      4.4504      1.5735
    244 1      2.7815      5.0067      2.3602
    245 4      2.2252      4.4504      3.1469
    246 4      2.7815      5.0067      3.9336
    247 3      2.2252      4.4504      4.7204
    248 3      2.7815      5.0067      5.5071
    249 3      2.2252      4.4504      6.2938
    250 3      2.7815      5.0067      7.0805
    251 3      2.2252      4.4504      7.8673
    252 3      2.7815      5.0067      8.6540
    253 2      2.2252      5.5630      0.0000
    254 2      2.7815      6.1193      0.7867
    255 1      2.2252      5.5630      1.5735
    256 1      2.7815      6.1193      2.3602
    257 4      2.2252      5.5630      3.1469
    258 4      2.7815      6.1193      3.9336
    259 3      2.2252      5.5630      4.7204
    260 3      2.7815      6.1193      5.5071
    261 3      2.2252      5.5630      6.2938
    262 3      2.7815      6.1193      7.0805
    263 3      2.2252      5.5630      7.8673
    264 3      2.7815      6.1193      8.6540
    265 2      2.2252      6.6756      0.0000
    266 2      2.7815      7.2319      0.7867
    267 1      2.2252      6.6756      1.5735
    268 1      2.7815      7.2319      2.3602
    269 4      2.2252      6.6756      3.1469
    270 4      2.7815      7.2319      3.9336
    271 3      2.2252      6.6756      4.7204
    272 3      2.7815      7.2319      5.5071
    273 3      2.2252      6.6756      6.2938
    274 3      2.7815      7.2319      7.0805
    275 3      2.2252      6.6756      7.8673
    276 3      2.7815      7.2319      8.6540
    277 2      2.2252      7.7882      0.0000
    278 2      2.7815      8.3445      0.7867
    279 1      2.2252      7.7882      1.5735
    280 1      2.7815      8.3445      2.3602
    281 4      2.2252      7.7882      3.1469
    282 4      2.7815      8.3445      3.9336
    283 3      2.2252      7.7882      4.7204
    284 3      2.7815      8.3445      5.5071
    285 3      2.2252      7.7882      6.2938
    286 3      2.7815      8.3445      7.0805
    287 3      2.2252      7.7882      7.8673
    288 3      2.7815      8.3445      8.6540
    289 2      3.3378      0.0000      0.0000
    290 2      3.8941      0.5563      0.7867
    291 1      3.3378      0.0000      1.5735
    292 1      3.8941      0.5563      2.3602
    293 4      3.3378      0.0000      3.1469
    294 4      3.8941      0.5563      3.9336
    295 3      3.3378      0.0000      4.7204
    296 3      3.8941      0.5563      5.5071
    297 3      3.3378      0.0000      6.2938
    298 3      3.8941      0.5563      7.0805
    299 3      3.3378      0.0000      7.8673
    300 3      3.8941      0.5563      8.6540
    301 2      3.3378      1.1126      0.0000
    302 2      3.8941      1.6689      0.7867
    303 1      3.3378      1.1126      1.5735
    304 1      3.8941      1.6689      2.3602
    305 4      3.3378      1.1126      3.1469
    306 4      3.8941      1.6689      3.9336
    307 3      3.3378      1.1126      4.7204
    308 3      3.8941      1.6689      5.5071
    309 3      3.3378      1.1126      6.2938
    310 3      3.8941      1.6689      7.0805
    311 3      3.3378      1.1126      7.8673
    312 3      3.8941      1.6689      8.6540
    313 2      3.3378      2.2252      0.0000
    314 2      3.8941      2.7815      0.7867
    315 1      3.3378      2.2252      1.5735
    316 1      3.8941      2.7815      2.3602
    317 4      3.3378      2.2252      3.1469
    318 4      3.8941      2.7815      3.9336
    319 3      3.3378      2.2252      4.7204
    320 3      3.8941      2.7815      5.5071
    321 3      3.3378      2.2252      6.2938
    322 3      3.8941      2.7815      7.0805
    323 3      3.3378      2.2252      7.8673
    324 3      3.8941      2.7815      8.6540
    325 2      3.3378      3.3378      0.0000
    326 2      3.8941      3.8941      0.7867
    327 1      3.3378      3.3378      1.5735
    328 1      3.8941      3.8941      2.3602
    329 4      3.3378      3.3378      3.1469
    330 4      3.8941      3.8941      3.9336
    331 3      3.3378      3.3378      4.7204
    332 3      3.8941      3.8941      5.5071
    333 3      3.3378      3.3378      6.2938
    334 3      3.8941      3.8941      7.0805
    335 3      3.3378      3.3378      7.8673
    336 3      3.8941      3.8941      8.6540
    337 2      3.3378      4.4504      0.0000
    338 2      3.8941      5.0067      0.7867
    339 1      3.3378      4.4504      1.5735
    340 1      3.8941      5.0067      2.3602
    341 4      3.3378      4.4504      3.1469
    342 4      3.8941      5.0067      3.9336
    343 3      3.3378      4.4504      4.7204
    344 3      3.8941      5.0067      5.5071
    345 3      3.3378      4.4504      6.2938
    346 3      3.8941      5.0067      7.0805
    347 3      3.3378      4.4504      7.8673
    348 3      3.8941      5.0067      8.6540
    349 2      3.3378      5.5630      0.0000
    350 2      3.8941      6.1193      0.7867
    351 1      3.3378      5.5630      1.5735
    352 1      3.8941      6.1193      2.3602
    353 4      3.3378      5.5630      3.1469
    354 4      3.8941      6.1193      3.9336
    355 3      3.3378      5.5630      4.7204
    356 3      3.8941      6.1193      5.5071
    357 3      3.3378      5.5630      6.2938
    358 3      3.8941      6.1193      7.0805
    359 3      3.3378      5.5630      7.8673
    360 3      3.8941      6.1193      8.6540
    361 2      3.3378      6.6756      0.0000
    362 2      3.8941      7.2319      0.7867
    363 1      3.3378      6.6756      1.5735
    364 1      3.8941      7.2319      2.3602
    365 4      3.3378      6.6756      3.1469
    366 4      3.8941      7.2319      3.9336
    367 3      3.3378      6.6756      4.7204
    368 3      3.8941      7.2319      5.5071
    369 3      3.3378      6.6756      6.2938
    370 3      3.8941      7.2319      7.0805
    371 3      3.3378      6.6756      7.8673
    372 3      3.8941      7.2319      8.6540
    373 2      3.3378      7.7882      0.0000
    374 2      3.8941      8.3445      0.7867
    375 1      3.3378      7.7882      1.5735
    376 1      3.8941      8.3445      2.3602
    377 4      3.3378      7.7882      3.1469
    378 4      3.8941      8.3445      3.9336
    379 3      3.3378      7.7882      4.7204
    380 3      3.8941      8.3445      5.5071
    381 3      3.3378      7.7882      6.2938
    382 3      3.8941      8.3445      7.0805
    383 3      3.3378      7.7882      7.8673
    384 3      3.8941      8.3445      8.6540
    385 2      4.4504      0.0000      0.0000
    386 2      5.0067      0.5563      0.7867
    387 1      4.4504      0.0000      1.5735
    388 1      5.0067      0.5563      2.3602
    389 4      4.4504      0.0000      3.1469
    390 4      5.0067      0.5563      3.9336
    391 3      4.4504      0.0000      4.7204
    392 3      5.0067      0.5563      5.5071
    393 3      4.4504      0.0000      6.2938
    394 3      5.0067      0.5563      7.0805
    395 3      4.4504      0.0000      7.8673
    396 3      5.0067      0.5563      8.6540
    397 2      4.4504      1.1126      0.0000
    398 2      5.0067      1.6689      0.7867
    399 1      4.4504      1.1126      1.5735
    400 1      5.0067      1.6689      2.3602
    401 4      4.4504      1.1126      3.1469
    402 4      5.0067      1.6689      3.9336
    403 3      4.4504      1.1126      4.7204
    404 3      5.0067      1.6689      5.5071
    405 3      4.4504      1.1126      6.2938
    406 3      5.0067      1.6689      7.0805
    407 3      4.4504      1.1126      7.8673
    408 3      5.0067      1.6689      8.6540
    409 2      4.4504      2.2252      0.0000
    410 2      5.0067      2.7815      0.7867
    411 1      4.4504      2.2252      1.5735
    412 1      5.0067      2.7815      2.3602
    413 4      4.4504      2.2252      3.1469
    414 4      5.0067      2.7815      3.9336
    415 3      4.4504      2.2252      4.7204
    416 3      5.0067      2.7815      5.5071
    417 3      4.4504      2.2252      6.2938
    418 3      5.0067      2.7815      7.0805
    419 3      4.4504      2.2252      7.8673
    420 3      5.0067      2.7815      8.6540
    421 2      4.4504      3.3378      0.0000
    422 2      5.0067      3.8941      0.7867
    423 1      4.4504      3.3378      1.5735
    424 1      5.0067      3.8941      2.3602
    425 4      4.4504      3.3378      3.1469
    426 4      5.0067      3.8941      3.9336
    427 3      4.4504      3.3378      4.7204
    428 3      5.0067      3.8941      5.5071
    429 3      4.4504      3.3378      6.2938
    430 3      5.0067      3.8941      7.0805
    431 3      4.4504      3.3378      7.8673
    432 3      5.0067      3.8941      8.6540
    433 2      4.4504      4.4504      0.0000
    434 2      5.0067      5.0067      0.7867
    435 1      4.4504      4.4504      1.5735
    436 1      5.0067      5.0067      2.3602
    437 4      4.4504      4.4504      3.1469
    438 4      5.0067      5.0067      3.9336
    439 3      4.4504      4.4504      4.7204
    440 3      5.0067      5.0067      5.5071
    441 3      4.4504      4.4504      6.2938
    442 3      5.0067      5.0067      7.0805
    443 3      4.4504      4.4504      7.8673
    444 3      5.0067      5.0067      8.6540
    445 2      4.4504      5.5630      0.0000
    446 2      5.0067      6.1193      0.7867
    447 1      4.4504      5.5630      1.5735
    448 1      5.0067      6.1193      2.3602
    449 4      4.4504      5.5630      3.1469
    450 4      5.0067      6.1193      3.9336
    451 3      4.4504      5.5630      4.7204
    452 3      5.0067      6.1193      5.5071
    453 3      4.4504      5.5630      6.2938
    454 3      5.0067      6.1193      7.0805
    455 3      4.4504      5.5630      7.8673
    456 3      5.0067      6.1193      8.6540
    457 2      4.4504      6.6756      0.0000
    458 2      5.0067      7.2319      0.7867
    459 1      4.4504      6.6756      1.5735
    460 1      5.0067      7.2319      2.3602
    461 4      4.4504      6.6756      3.1469
    462 4      5.0067      7.2319      3.9336
    463 3      4.4504      6.6756      4.7204
    464 3      5.0067      7.2319      5.5071
    465 3      4.4504      6.6756      6.2938
    466 3      5.0067      7.2319      7.0805
    467 3      4.4504      6.6756      7.8673
    468 3      5.0067      7.2319      8.6540
    469 2      4.4504      7.7882      0.0000
    470 2      5.0067      8.3445      0.7867
    471 1      4.4504      7.7882      1.5735
    472 1      5.0067      8.3445      2.3602
    473 4      4.4504      7.7882      3.1469
    474 4      5.0067      8.3445      3.9336
    475 3      4.4504      7.7882      4.7204
    476 3      5.0067      8.3445      5.5071
    477 3      4.4504      7.7882      6.2938
    478 3      5.0067      8.3445      7.0805
    479 3      4.4504      7.7882      7.8673
    480 3      5.0067      8.3445      8.6540
    481 2      5.5630      0.0000      0.0000
    482 2      6.1193      0.5563      0.7867
    483 1      5.5630      0.0000      1.5735
    484 1      6.1193      0.5563      2.3602
    485 4      5.5630      0.0000      3.1469
    486 4      6.1193      0.5563      3.9336
    487 3      5.5630      0.0000      4.7204
    488 3      6.1193      0.5563      5.5071
    489 3      5.5630      0.0000      6.2938
    490 3      6.1193      0.5563      7.0805
    491 3      5.5630      0.0000      7.8673
    492 3      6.1193      0.5563      8.6540
    493 2      5.5630      1.1126      0.0000
    494 2      6.1193      1.6689      0.7867
    495 1      5.5630      1.1126      1.5735
    496 1      6.1193      1.6689      2.3602
    497 4      5.5630      1.1126      3.1469
    498 4      6.1193      1.6689      3.9336
    499 3      5.5630      1.1126      4.7204
    500 3      6.1193      1.6689      5.5071
    501 3      5.5630      1.1126      6.2938
    502 3      6.1193      1.6689      7.0805
    503 3      5.5630      1.1126      7.8673
    504 3      6.1193      1.6689      8.6540
    505 2      5.5630      2.2252      0.0000
    506 2      6.1193      2.7815      0.7867
    507 1      5.5630      2.2252      1.5735
    508 1      6.1193      2.7815      2.3602
    509 4      5.5630      2.2252      3.1469
    510 4      6.1193      2.7815      3.9336
    511 3      5.5630      2.2252      4.7204
    512 3      6.1193      2.7815      5.5071
    513 3      5.5630      2.2252      6.2938
    514 3      6.1193      2.7815      7.0805
    515 3      5.5630      2.2252      7.8673
    516 3      6.1193      2.7815      8.6540
    517 2      5.5630      3.3378      0.0000
    518 2      6.1193      3.8941      0.7867
    519 1      5.5630      3.3378      1.5735
    520 1      6.1193      3.8941      2.3602
    521 4      5.5630      3.3378      3.1469
    522 4      6.1193      3.8941      3.9336
    523 3      5.5630      3.3378      4.7204
    524 3      6.1193      3.8941      5.5071
    525 3      5.5630      3.3378      6.2938
    526 3      6.1193      3.8941      7.0805
    527 3      5.5630      3.3378      7.8673
    528 3      6.1193      3.8941      8.6540
    529 2      5.5630      4.4504      0.0000
    530 2      6.1193      5.0067      0.7867
    531 1      5.5630      4.4504      1.5735
    532 1      6.1193      5.0067      2.3602
    533 4      5.5630      4.4504      3.1469
    534 4      6.1193      5.0067      3.9336
    535 3      5.5630      4.4504      4.7204
    536 3      6.1193      5.0067      5.5071
    537 3      5.5630      4.4504      6.2938
    538 3      6.1193      5.0067      7.0805
    539 3      5.5630      4.4504      7.8673
    540 3      6.1193      5.0067      8.6540
    541 2      5.5630      5.5630      0.0000
    542 2      6.1193      6.1193      0.7867
    543 1      5.5630      5.5630      1.5735
    544 1      6.1193      6.1193      2.3602
    545 4      5.5630      5.5630      3.1469
    546 4      6.1193      6.1193      3.9336
    547 3      5.5630      5.5630      4.7204
    548 3      6.1193      6.1193      5.5071
    549 3      5.5630      5.5630      6.2938
    550 3      6.1193      6.1193      7.0805
    551 3      5.5630      5.5630      7.8673
    552 3      6.1193      6.1193      8.6540
    553 2      5.5630      6.6756      0.0000
    554 2      6.1193      7.2319      0.7867
    555 1      5.5630      6.6756      1.5735
    556 1      6.1193      7.2319      2.3602
    557 4      5.5630      6.6756      3.1469
    558 4      6.1193      7.2319      3.9336
    559 3      5.5630      6.6756      4.7204
    560 3      6.1193      7.2319      5.5071
    561 3      5.5630      6.6756      6.2938
    562 3      6.1193      7.2319      7.0805
    563 3      5.5630      6.6756      7.8673
    564 3      6.1193      7.2319      8.6540
    565 2      5.5630      7.7882      0.0000
    566 2      6.1193      8.3445      0.7867
    567 1      5.5630      7.7882      1.5735
    568 1      6.1193      8.3445      2.3602
    569 4      5.5630      7.7882      3.1469
    570 4      6.1193      8.3445      3.9336
    571 3      5.5630      7.7882      4.7204
    572 3      6.1193      8.3445      5.5071
    573 3      5.5630      7.7882      6.2938
    574 3      6.1193      8.3445      7.0805
    575 3      5.5630      7.7882      7.8673
    576 3      6.1193      8.3445      8.6540
    577 2      6.6756      0.0000      0.0000
    578 2      7.2319      0.5563      0.7867
    579 1      6.6756      0.0000      1.5735
    580 1      7.2319      0.5563      2.3602
    581 4      6.6756      0.0000      3.1469
    582 4      7.2319      0.5563      3.9336
    583 3      6.6756      0.0000      4.7204
    584 3      7.2319      0.5563      5.5071
    585 3      6.6756      0.0000      6.2938
    586 3      7.2319      0.5563      7.0805
    587 3      6.6756      0.0000      7.8673
    588 3      7.2319      0.5563      8.6540
    589 2      6.6756      1.1126      0.0000
    590 2      7.2319      1.6689      0.7867
    591 1      6.6756      1.1126      1.5735
    592 1      7.2319      1.6689      2.3602
    593 4      6.6756      1.1126      3.1469
    594 4      7.2319      1.6689      3.9336
    595 3      6.6756      1.1126      4.7204
    596 3      7.2319      1.6689      5.5071
    597 3      6.6756      1.1126      6.2938
    598 3      7.2319      1.6689      7.0805
    599 3      6.6756      1.1126      7.8673
    600 3      7.2319      1.6689      8.6540
    601 2      6.6756      2.2252      0.0000
    602 2      7.2319      2.7815      0.7867
    603 1      6.6756      2.2252      1.5735
    604 1      7.2319      2.7815      2.3602
    605 4      6.6756      2.2252      3.1469
    606 4      7.2319      2.7815      3.9336
    607 3      6.6756      2.2252      4.7204
    608 3      7.2319      2.7815      5.5071
    609 3      6.6756      2.2252      6.2938
    610 3      7.2319      2.7815      7.0805
    611 3      6.6756      2.2252      7.8673
    612 3      7.2319      2.7815      8.6540
    613 2      6.6756      3.3378      0.0000
    614 2      7.2319      3.8941      0.7867
    615 1      6.6756      3.3378      1.5735
    616 1      7.2319      3.8941      2.3602
    617 4      6.6756      3.3378      3.1469
    618 4      7.2319      3.8941      3.9336
    619 3      6.6756      3.3378      4.7204
    620 3      7.2319      3.8941      5.5071
    621 3      6.6756      3.3378      6.2938
    622 3      7.2319      3.8941      7.0805
    623 3      6.6756      3.3378      7.8673
    624 3      7.2319      3.8941      8.6540
    625 2      6.6756      4.4504      0.0000
    626 2      7.2319      5.0067      0.7867
    627 1      6.6756      4.4504      1.5735
    628 1      7.2319      5.0067      2.3602
    629 4      6.6756      4.4504      3.1469
    630 4      7.2319      5.0067      3.9336
    631 3      6.6756      4.4504      4.7204
    632 3      7.2319      5.0067      5.5071
    633 3      6.6756      4.4504      6.2938
    634 3      7.2319      5.0067      7.0805
    635 3      6.6756      4.4504      7.8673
    636 3      7.2319      5.0067      8.6540
    637 2      6.6756      5.5630      0.0000
    638 2      7.2319      6.1193      0.7867
    639 1      6.6756      5.5630      1.5735
    640 1      7.2319      6.1193      2.3602
    641 4      6.6756      5.5630      3.1469
    642 4      7.2319      6.1193      3.9336
    643 3      6.6756      5.5630      4.7204
    644 3      7.2319      6.1193      5.5071
    645 3      6.6756      5.5630      6.2938
    646 3      7.2319      6.1193      7.0805
    647 3      6.6756      5.5630      7.8673