
        2304 atoms

4 atom types

0.0         8.9009600 xlo xhi
0.0         8.9009600 ylo yhi
      -11.329073       36.819484 zlo zhi

Masses

1 1.000000
2 1.000000
3 1.000000
4 1.000000

Atoms
 
      1 2    0.000000    0.000000    0.000000
      2 2    0.556310    0.556310    0.786741
      3 1    0.000000    0.000000    1.573482
      4 1    0.556310    0.556310    2.360223
      5 1    0.000000    0.000000    3.146965
      6 1    0.556310    0.556310    3.933706
      7 1    0.000000    0.000000    4.720447
      8 1    0.556310    0.556310    5.507188
      9 1    0.000000    0.000000    6.293929
     10 1    0.556310    0.556310    7.080670
     11 1    0.000000    0.000000    7.867411
     12 1    0.556310    0.556310    8.654153
     13 1    0.000000    0.000000    9.440894
     14 1    0.556310    0.556310   10.227635
     15 1    0.000000    0.000000   11.014376
     16 1    0.556310    0.556310   11.801117
     17 1    0.000000    0.000000   12.587858
     18 1    0.556310    0.556310   13.374599
     19 1    0.000000    0.000000   14.161341
     20 1    0.556310    0.556310   14.948082
     21 1    0.000000    0.000000   15.734823
     22 1    0.556310    0.556310   16.521564
     23 4    0.000000    0.000000   17.308305
     24 4    0.556310    0.556310   18.095046
     25 3    0.000000    0.000000   18.881788
     26 3    0.556310    0.556310   19.668529
     27 3    0.000000    0.000000   20.455270
     28 3    0.556310    0.556310   21.242011
     29 3    0.000000    0.000000   22.028752
     30 3    0.556310    0.556310   22.815493
     31 3    0.000000    0.000000   23.602234
     32 3    0.556310    0.556310   24.388976
     33 3    0.000000    0.000000   25.175717
     34 3    0.556310    0.556310   25.962458
     35 3    0.000000    0.000000   26.749199
     36 3    0.556310    0.556310   27.535940
     37 2    0.000000    1.112620    0.000000
     38 2    0.556310    1.668930    0.786741
     39 1    0.000000    1.112620    1.573482
     40 1    0.556310    1.668930    2.360223
     41 1    0.000000    1.112620    3.146965
     42 1    0.556310    1.668930    3.933706
     43 1    0.000000    1.112620    4.720447
     44 1    0.556310    1.668930    5.507188
     45 1    0.000000    1.112620    6.293929
     46 1    0.556310    1.668930    7.080670
     47 1    0.000000    1.112620    7.867411
     48 1    0.556310    1.668930    8.654153
     49 1    0.000000    1.112620    9.440894
     50 1    0.556310    1.668930   10.227635
     51 1    0.000000    1.112620   11.014376
     52 1    0.556310    1.668930   11.801117
     53 1    0.000000    1.112620   12.587858
     54 1    0.556310    1.668930   13.374599
     55 1    0.000000    1.112620   14.161341
     56 1    0.556310    1.668930   14.948082
     57 1    0.000000    1.112620   15.734823
     58 1    0.556310    1.668930   16.521564
     59 4    0.000000    1.112620   17.308305
     60 4    0.556310    1.668930   18.095046
     61 3    0.000000    1.112620   18.881788
     62 3    0.556310    1.668930   19.668529
     63 3    0.000000    1.112620   20.455270
     64 3    0.556310    1.668930   21.242011
     65 3    0.000000    1.112620   22.028752
     66 3    0.556310    1.668930   22.815493
     67 3    0.000000    1.112620   23.602234
     68 3    0.556310    1.668930   24.388976
     69 3    0.000000    1.112620   25.175717
     70 3    0.556310    1.668930   25.962458
     71 3    0.000000    1.112620   26.749199
     72 3    0.556310    1.668930   27.535940
     73 2    0.000000    2.225240    0.000000
     74 2    0.556310    2.781550    0.786741
     75 1    0.000000    2.225240    1.573482
     76 1    0.556310    2.781550    2.360223
     77 1    0.000000    2.225240    3.146965
     78 1    0.556310    2.781550    3.933706
     79 1    0.000000    2.225240    4.720447
     80 1    0.556310    2.781550    5.507188
     81 1    0.000000    2.225240    6.293929
     82 1    0.556310    2.781550    7.080670
     83 1    0.000000    2.225240    7.867411
     84 1    0.556310    2.781550    8.654153
     85 1    0.000000    2.225240    9.440894
     86 1    0.556310    2.781550   10.227635
     87 1    0.000000    2.225240   11.014376
     88 1    0.556310    2.781550   11.801117
     89 1    0.000000    2.225240   12.587858
     90 1    0.556310    2.781550   13.374599
     91 1    0.000000    2.225240   14.161341
     92 1    0.556310    2.781550   14.948082
     93 1    0.000000    2.225240   15.734823
     94 1    0.556310    2.781550   16.521564
     95 4    0.000000    2.225240   17.308305
     96 4    0.556310    2.781550   18.095046
     97 3    0.000000    2.225240   18.881788
     98 3    0.556310    2.781550   19.668529
     99 3    0.000000    2.225240   20.455270
    100 3    0.556310    2.781550   21.242011
    101 3    0.000000    2.225240   22.028752
    102 3    0.556310    2.781550   22.815493
    103 3    0.000000    2.225240   23.602234
    104 3    0.556310    2.781550   24.388976
    105 3    0.000000    2.225240   25.175717
    106 3    0.556310    2.781550   25.962458
    107 3    0.000000    2.225240   26.749199
    108 3    0.556310    2.781550   27.535940
    109 2    0.000000    3.337860    0.000000
    110 2    0.556310    3.894170    0.786741
    111 1    0.000000    3.337860    1.573482
    112 1    0.556310    3.894170    2.360223
    113 1    0.000000    3.337860    3.146965
    114 1    0.556310    3.894170    3.933706
    115 1    0.000000    3.337860    4.720447
    116 1    0.556310    3.894170    5.507188
    117 1    0.000000    3.337860    6.293929
    118 1    0.556310    3.894170    7.080670
    119 1    0.000000    3.337860    7.867411
    120 1    0.556310    3.894170    8.654153
    121 1    0.000000    3.337860    9.440894
    122 1    0.556310    3.894170   10.227635
    123 1    0.000000    3.337860   11.014376
    124 1    0.556310    3.894170   11.801117
    125 1    0.000000    3.337860   12.587858
    126 1    0.556310    3.894170   13.374599
    127 1    0.000000    3.337860   14.161341
    128 1    0.556310    3.894170   14.948082
    129 1    0.000000    3.337860   15.734823
    130 1    0.556310    3.894170   16.521564
    131 4    0.000000    3.337860   17.308305
    132 4    0.556310    3.894170   18.095046
    133 3    0.000000    3.337860   18.881788
    134 3    0.556310    3.894170   19.668529
    135 3    0.000000    3.337860   20.455270
    136 3    0.556310    3.894170   21.242011
    137 3    0.000000    3.337860   22.028752
    138 3    0.556310    3.894170   22.815493
    139 3    0.000000    3.337860   23.602234
    140 3    0.556310    3.894170   24.388976
    141 3    0.000000    3.337860   25.175717
    142 3    0.556310    3.894170   25.962458
    143 3    0.000000    3.337860   26.749199
    144 3    0.556310    3.894170   27.535940
    145 2    0.000000    4.450480    0.000000
    146 2    0.556310    5.006790    0.786741
    147 1    0.000000    4.450480    1.573482
    148 1    0.556310    5.006790    2.360223
    149 1    0.000000    4.450480    3.146965
    150 1    0.556310    5.006790    3.933706
    151 1    0.000000    4.450480    4.720447
    152 1    0.556310    5.006790    5.507188
    153 1    0.000000    4.450480    6.293929
    154 1    0.556310    5.006790    7.080670
    155 1    0.000000    4.450480    7.867411
    156 1    0.556310    5.006790    8.654153
    157 1    0.000000    4.450480    9.440894
    158 1    0.556310    5.006790   10.227635
    159 1    0.000000    4.450480   11.014376
    160 1    0.556310    5.006790   11.801117
    161 1    0.000000    4.450480   12.587858
    162 1    0.556310    5.006790   13.374599
    163 1    0.000000    4.450480   14.161341
    164 1    0.556310    5.006790   14.948082
    165 1    0.000000    4.450480   15.734823
    166 1    0.556310    5.006790   16.521564
    167 4    0.000000    4.450480   17.308305
    168 4    0.556310    5.006790   18.095046
    169 3    0.000000    4.450480   18.881788
    170 3    0.556310    5.006790   19.668529
    171 3    0.000000    4.450480   20.455270
    172 3    0.556310    5.006790   21.242011
    173 3    0.000000    4.450480   22.028752
    174 3    0.556310    5.006790   22.815493
    175 3    0.000000    4.450480   23.602234
    176 3    0.556310    5.006790   24.388976
    177 3    0.000000    4.450480   25.175717
    178 3    0.556310    5.006790   25.962458
    179 3    0.000000    4.450480   26.749199
    180 3    0.556310    5.006790   27.535940
    181 2    0.000000    5.563100    0.000000
    182 2    0.556310    6.119410    0.786741
    183 1    0.000000    5.563100    1.573482
    184 1    0.556310    6.119410    2.360223
    185 1    0.000000    5.563100    3.146965
    186 1    0.556310    6.119410    3.933706
    187 1    0.000000    5.563100    4.720447
    188 1    0.556310    6.119410    5.507188
    189 1    0.000000    5.563100    6.293929
    190 1    0.556310    6.119410    7.080670
    191 1    0.000000    5.563100    7.867411
    192 1    0.556310    6.119410    8.654153
    193 1    0.000000    5.563100    9.440894
    194 1    0.556310    6.119410   10.227635
    195 1    0.000000    5.563100   11.014376
    196 1    0.556310    6.119410   11.801117
    197 1    0.000000    5.563100   12.587858
    198 1    0.556310    6.119410   13.374599
    199 1    0.000000    5.563100   14.161341
    200 1    0.556310    6.119410   14.948082
    201 1    0.000000    5.563100   15.734823
    202 1    0.556310    6.119410   16.521564
    203 4    0.000000    5.563100   17.308305
    204 4    0.556310    6.119410   18.095046
    205 3    0.000000    5.563100   18.881788
    206 3    0.556310    6.119410   19.668529
    207 3    0.000000    5.563100   20.455270
    208 3    0.556310    6.119410   21.242011
    209 3    0.000000    5.563100   22.028752
    210 3    0.556310    6.119410   22.815493
    211 3    0.000000    5.563100   23.602234
    212 3    0.556310    6.119410   24.388976
    213 3    0.000000    5.563100   25.175717
    214 3    0.556310    6.119410   25.962458
    215 3    0.000000    5.563100   26.749199
    216 3    0.556310    6.119410   27.535940
    217 2    0.000000    6.675720    0.000000
    218 2    0.556310    7.232030    0.786741
    219 1    0.000000    6.675720    1.573482
    220 1    0.556310    7.232030    2.360223
    221 1    0.000000    6.675720    3.146965
    222 1    0.556310    7.232030    3.933706
    223 1    0.000000    6.675720    4.720447
    224 1    0.556310    7.232030    5.507188
    225 1    0.000000    6.675720    6.293929
    226 1    0.556310    7.232030    7.080670
    227 1    0.000000    6.675720    7.867411
    228 1    0.556310    7.232030    8.654153
    229 1    0.000000    6.675720    9.440894
    230 1    0.556310    7.232030   10.227635
    231 1    0.000000    6.675720   11.014376
    232 1    0.556310    7.232030   11.801117
    233 1    0.000000    6.675720   12.587858
    234 1    0.556310    7.232030   13.374599
    235 1    0.000000    6.675720   14.161341
    236 1    0.556310    7.232030   14.948082
    237 1    0.000000    6.675720   15.734823
    238 1    0.556310    7.232030   16.521564
    239 4    0.000000    6.675720   17.308305
    240 4    0.556310    7.232030   18.095046
    241 3    0.000000    6.675720   18.881788
    242 3    0.556310    7.232030   19.668529
    243 3    0.000000    6.675720   20.455270
    244 3    0.556310    7.232030   21.242011
    245 3    0.000000    6.675720   22.028752
    246 3    0.556310    7.232030   22.815493
    247 3    0.000000    6.675720   23.602234
    248 3    0.556310    7.232030   24.388976
    249 3    0.000000    6.675720   25.175717
    250 3    0.556310    7.232030   25.962458
    251 3    0.000000    6.675720   26.749199
    252 3    0.556310    7.232030   27.535940
    253 2    0.000000    7.788340    0.000000
    254 2    0.556310    8.344650    0.786741
    255 1    0.000000    7.788340    1.573482
    256 1    0.556310    8.344650    2.360223
    257 1    0.000000    7.788340    3.146965
    258 1    0.556310    8.344650    3.933706
    259 1    0.000000    7.788340    4.720447
    260 1    0.556310    8.344650    5.507188
    261 1    0.000000    7.788340    6.293929
    262 1    0.556310    8.344650    7.080670
    263 1    0.000000    7.788340    7.867411
    264 1    0.556310    8.344650    8.654153
    265 1    0.000000    7.788340    9.440894
    266 1    0.556310    8.344650   10.227635
    267 1    0.000000    7.788340   11.014376
    268 1    0.556310    8.344650   11.801117
    269 1    0.000000    7.788340   12.587858
    270 1    0.556310    8.344650   13.374599
    271 1    0.000000    7.788340   14.161341
    272 1    0.556310    8.344650   14.948082
    273 1    0.000000    7.788340   15.734823
    274 1    0.556310    8.344650   16.521564
    275 4    0.000000    7.788340   17.308305
    276 4    0.556310    8.344650   18.095046
    277 3    0.000000    7.788340   18.881788
    278 3    0.556310    8.344650   19.668529
    279 3    0.000000    7.788340   20.455270
    280 3    0.556310    8.344650   21.242011
    281 3    0.000000    7.788340   22.028752
    282 3    0.556310    8.344650   22.815493
    283 3    0.000000    7.788340   23.602234
    284 3    0.556310    8.344650   24.388976
    285 3    0.000000    7.788340   25.175717
    286 3    0.556310    8.344650   25.962458
    287 3    0.000000    7.788340   26.749199
    288 3    0.556310    8.344650   27.535940
    289 2    1.112620    0.000000    0.000000
    290 2    1.668930    0.556310    0.786741
    291 1    1.112620    0.000000    1.573482
    292 1    1.668930    0.556310    2.360223
    293 1    1.112620    0.000000    3.146965
    294 1    1.668930    0.556310    3.933706
    295 1    1.112620    0.000000    4.720447
    296 1    1.668930    0.556310    5.507188
    297 1    1.112620    0.000000    6.293929
    298 1    1.668930    0.556310    7.080670
    299 1    1.112620    0.000000    7.867411
    300 1    1.668930    0.556310    8.654153
    301 1    1.112620    0.000000    9.440894
    302 1    1.668930    0.556310   10.227635
    303 1    1.112620    0.000000   11.014376
    304 1    1.668930    0.556310   11.801117
    305 1    1.112620    0.000000   12.587858
    306 1    1.668930    0.556310   13.374599
    307 1    1.112620    0.000000   14.161341
    308 1    1.668930    0.556310   14.948082
    309 1    1.112620    0.000000   15.734823
    310 1    1.668930    0.556310   16.521564
    311 4    1.112620    0.000000   17.308305
    312 4    1.668930    0.556310   18.095046
    313 3    1.112620    0.000000   18.881788
    314 3    1.668930    0.556310   19.668529
    315 3    1.112620    0.000000   20.455270
    316 3    1.668930    0.556310   21.242011
    317 3    1.112620    0.000000   22.028752
    318 3    1.668930    0.556310   22.815493
    319 3    1.112620    0.000000   23.602234
    320 3    1.668930    0.556310   24.388976
    321 3    1.112620    0.000000   25.175717
    322 3    1.668930    0.556310   25.962458
    323 3    1.112620    0.000000   26.749199
    324 3    1.668930    0.556310   27.535940
    325 2    1.112620    1.112620    0.000000
    326 2    1.668930    1.668930    0.786741
    327 1    1.112620    1.112620    1.573482
    328 1    1.668930    1.668930    2.360223
    329 1    1.112620    1.112620    3.146965
    330 1    1.668930    1.668930    3.933706
    331 1    1.112620    1.112620    4.720447
    332 1    1.668930    1.668930    5.507188
    333 1    1.112620    1.112620    6.293929
    334 1    1.668930    1.668930    7.080670
    335 1    1.112620    1.112620    7.867411
    336 1    1.668930    1.668930    8.654153
    337 1    1.112620    1.112620    9.440894
    338 1    1.668930    1.668930   10.227635
    339 1    1.112620    1.112620   11.014376
    340 1    1.668930    1.668930   11.801117
    341 1    1.112620    1.112620   12.587858
    342 1    1.668930    1.668930   13.374599
    343 1    1.112620    1.112620   14.161341
    344 1    1.668930    1.668930   14.948082
    345 1    1.112620    1.112620   15.734823
    346 1    1.668930    1.668930   16.521564
    347 4    1.112620    1.112620   17.308305
    348 4    1.668930    1.668930   18.095046
    349 3    1.112620    1.112620   18.881788
    350 3    1.668930    1.668930   19.668529
    351 3    1.112620    1.112620   20.455270
    352 3    1.668930    1.668930   21.242011
    353 3    1.112620    1.112620   22.028752
    354 3    1.668930    1.668930   22.815493
    355 3    1.112620    1.112620   23.602234
    356 3    1.668930    1.668930   24.388976
    357 3    1.112620    1.112620   25.175717
    358 3    1.668930    1.668930   25.962458
    359 3    1.112620    1.112620   26.749199
    360 3    1.668930    1.668930   27.535940
    361 2    1.112620    2.225240    0.000000
    362 2    1.668930    2.781550    0.786741
    363 1    1.112620    2.225240    1.573482
    364 1    1.668930    2.781550    2.360223
    365 1    1.112620    2.225240    3.146965
    366 1    1.668930    2.781550    3.933706
    367 1    1.112620    2.225240    4.720447
    368 1    1.668930    2.781550    5.507188
    369 1    1.112620    2.225240    6.293929
    370 1    1.668930    2.781550    7.080670
    371 1    1.112620    2.225240    7.867411
    372 1    1.668930    2.781550    8.654153
    373 1    1.112620    2.225240    9.440894
    374 1    1.668930    2.781550   10.227635
    375 1    1.112620    2.225240   11.014376
    376 1    1.668930    2.781550   11.801117
    377 1    1.112620    2.225240   12.587858
    378 1    1.668930    2.781550   13.374599
    379 1    1.112620    2.225240   14.161341
    380 1    1.668930    2.781550   14.948082
    381 1    1.112620    2.225240   15.734823
    382 1    1.668930    2.781550   16.521564
    383 4    1.112620    2.225240   17.308305
    384 4    1.668930    2.781550   18.095046
    385 3    1.112620    2.225240   18.881788
    386 3    1.668930    2.781550   19.668529
    387 3    1.112620    2.225240   20.455270
    388 3    1.668930    2.781550   21.242011
    389 3    1.112620    2.225240   22.028752
    390 3    1.668930    2.781550   22.815493
    391 3    1.112620    2.225240   23.602234
    392 3    1.668930    2.781550   24.388976
    393 3    1.112620    2.225240   25.175717
    394 3    1.668930    2.781550   25.962458
    395 3    1.112620    2.225240   26.749199
    396 3    1.668930    2.781550   27.535940
    397 2    1.112620    3.337860    0.000000
    398 2    1.668930    3.894170    0.786741
    399 1    1.112620    3.337860    1.573482
    400 1    1.668930    3.894170    2.360223
    401 1    1.112620    3.337860    3.146965
    402 1    1.668930    3.894170    3.933706
    403 1    1.112620    3.337860    4.720447
    404 1    1.668930    3.894170    5.507188
    405 1    1.112620    3.337860    6.293929
    406 1    1.668930    3.894170    7.080670
    407 1    1.112620    3.337860    7.867411
    408 1    1.668930    3.894170    8.654153
    409 1    1.112620    3.337860    9.440894
    410 1    1.668930    3.894170   10.227635
    411 1    1.112620    3.337860   11.014376
    412 1    1.668930    3.894170   11.801117
    413 1    1.112620    3.337860   12.587858
    414 1    1.668930    3.894170   13.374599
    415 1    1.112620    3.337860   14.161341
    416 1    1.668930    3.894170   14.948082
    417 1    1.112620    3.337860   15.734823
    418 1    1.668930    3.894170   16.521564
    419 4    1.112620    3.337860   17.308305
    420 4    1.668930    3.894170   18.095046
    421 3    1.112620    3.337860   18.881788
    422 3    1.668930    3.894170   19.668529
    423 3    1.112620    3.337860   20.455270
    424 3    1.668930    3.894170   21.242011
    425 3    1.112620    3.337860   22.028752
    426 3    1.668930    3.894170   22.815493
    427 3    1.112620    3.337860   23.602234
    428 3    1.668930    3.894170   24.388976
    429 3    1.112620    3.337860   25.175717
    430 3    1.668930    3.894170   25.962458
    431 3    1.112620    3.337860   26.749199
    432 3    1.668930    3.894170   27.535940
    433 2    1.112620    4.450480    0.000000
    434 2    1.668930    5.006790    0.786741
    435 1    1.112620    4.450480    1.573482
    436 1    1.668930    5.006790    2.360223
    437 1    1.112620    4.450480    3.146965
    438 1    1.668930    5.006790    3.933706
    439 1    1.112620    4.450480    4.720447
    440 1    1.668930    5.006790    5.507188
    441 1    1.112620    4.450480    6.293929
    442 1    1.668930    5.006790    7.080670
    443 1    1.112620    4.450480    7.867411
    444 1    1.668930    5.006790    8.654153
    445 1    1.112620    4.450480    9.440894
    446 1    1.668930    5.006790   10.227635
    447 1    1.112620    4.450480   11.014376
    448 1    1.668930    5.006790   11.801117
    449 1    1.112620    4.450480   12.587858
    450 1    1.668930    5.006790   13.374599
    451 1    1.112620    4.450480   14.161341
    452 1    1.668930    5.006790   14.948082
    453 1    1.112620    4.450480   15.734823
    454 1    1.668930    5.006790   16.521564
    455 4    1.112620    4.450480   17.308305
    456 4    1.668930    5.006790   18.095046
    457 3    1.112620    4.450480   18.881788
    458 3    1.668930    5.006790   19.668529
    459 3    1.112620    4.450480   20.455270
    460 3    1.668930    5.006790   21.242011
    461 3    1.112620    4.450480   22.028752
    462 3    1.668930    5.006790   22.815493
    463 3    1.112620    4.450480   23.602234
    464 3    1.668930    5.006790   24.388976
    465 3    1.112620    4.450480   25.175717
    466 3    1.668930    5.006790   25.962458
    467 3    1.112620    4.450480   26.749199
    468 3    1.668930    5.006790   27.535940
    469 2    1.112620    5.563100    0.000000
    470 2    1.668930    6.119410    0.786741
    471 1    1.112620    5.563100    1.573482
    472 1    1.668930    6.119410    2.360223
    473 1    1.112620    5.563100    3.146965
    474 1    1.668930    6.119410    3.933706
    475 1    1.112620    5.563100    4.720447
    476 1    1.668930    6.119410    5.507188
    477 1    1.112620    5.563100    6.293929
    478 1    1.668930    6.119410    7.080670
    479 1    1.112620    5.563100    7.867411
    480 1    1.668930    6.119410    8.654153
    481 1    1.112620    5.563100    9.440894
    482 1    1.668930    6.119410   10.227635
    483 1    1.112620    5.563100   11.014376
    484 1    1.668930    6.119410   11.801117
    485 1    1.112620    5.563100   12.587858
    486 1    1.668930    6.119410   13.374599
    487 1    1.112620    5.563100   14.161341
    488 1    1.668930    6.119410   14.948082
    489 1    1.112620    5.563100   15.734823
    490 1    1.668930    6.119410   16.521564
    491 4    1.112620    5.563100   17.308305
    492 4    1.668930    6.119410   18.095046
    493 3    1.112620    5.563100   18.881788
    494 3    1.668930    6.119410   19.668529
    495 3    1.112620    5.563100   20.455270
    496 3    1.668930    6.119410   21.242011
    497 3    1.112620    5.563100   22.028752
    498 3    1.668930    6.119410   22.815493
    499 3    1.112620    5.563100   23.602234
    500 3    1.668930    6.119410   24.388976
    501 3    1.112620    5.563100   25.175717
    502 3    1.668930    6.119410   25.962458
    503 3    1.112620    5.563100   26.749199
    504 3    1.668930    6.119410   27.535940
    505 2    1.112620    6.675720    0.000000
    506 2    1.668930    7.232030    0.786741
    507 1    1.112620    6.675720    1.573482
    508 1    1.668930    7.232030    2.360223
    509 1    1.112620    6.675720    3.146965
    510 1    1.668930    7.232030    3.933706
    511 1    1.112620    6.675720    4.720447
    512 1    1.668930    7.232030    5.507188
    513 1    1.112620    6.675720    6.293929
    514 1    1.668930    7.232030    7.080670
    515 1    1.112620    6.675720    7.867411
    516 1    1.668930    7.232030    8.654153
    517 1    1.112620    6.675720    9.440894
    518 1    1.668930    7.232030   10.227635
    519 1    1.112620    6.675720   11.014376
    520 1    1.668930    7.232030   11.801117
    521 1    1.112620    6.675720   12.587858
    522 1    1.668930    7.232030   13.374599
    523 1    1.112620    6.675720   14.161341
    524 1    1.668930    7.232030   14.948082
    525 1    1.112620    6.675720   15.734823
    526 1    1.668930    7.232030   16.521564
    527 4    1.112620    6.675720   17.308305
    528 4    1.668930    7.232030   18.095046
    529 3    1.112620    6.675720   18.881788
    530 3    1.668930    7.232030   19.668529
    531 3    1.112620    6.675720   20.455270
    532 3    1.668930    7.232030   21.242011
    533 3    1.112620    6.675720   22.028752
    534 3    1.668930    7.232030   22.815493
    535 3    1.112620    6.675720   23.602234
    536 3    1.668930    7.232030   24.388976
    537 3    1.112620    6.675720   25.175717
    538 3    1.668930    7.232030   25.962458
    539 3    1.112620    6.675720   26.749199
    540 3    1.668930    7.232030   27.535940
    541 2    1.112620    7.788340    0.000000
    542 2    1.668930    8.344650    0.786741
    543 1    1.112620    7.788340    1.573482
    544 1    1.668930    8.344650    2.360223
    545 1    1.112620    7.788340    3.146965
    546 1    1.668930    8.344650    3.933706
    547 1    1.112620    7.788340    4.720447
    548 1    1.668930    8.344650    5.507188
    549 1    1.112620    7.788340    6.293929
    550 1    1.668930    8.344650    7.080670
    551 1    1.112620    7.788340    7.867411
    552 1    1.668930    8.344650    8.654153
    553 1    1.112620    7.788340    9.440894
    554 1    1.668930    8.344650   10.227635
    555 1    1.112620    7.788340   11.014376
    556 1    1.668930    8.344650   11.801117
    557 1    1.112620    7.788340   12.587858
    558 1    1.668930    8.344650   13.374599
    559 1    1.112620    7.788340   14.161341
    560 1    1.668930    8.344650   14.948082
    561 1    1.112620    7.788340   15.734823
    562 1    1.668930    8.344650   16.521564
    563 4    1.112620    7.788340   17.308305
    564 4    1.668930    8.344650   18.095046
    565 3    1.112620    7.788340   18.881788
    566 3    1.668930    8.344650   19.668529
    567 3    1.112620    7.788340   20.455270
    568 3    1.668930    8.344650   21.242011
    569 3    1.112620    7.788340   22.028752
    570 3    1.668930    8.344650   22.815493
    571 3    1.112620    7.788340   23.602234
    572 3    1.668930    8.344650   24.388976
    573 3    1.112620    7.788340   25.175717
    574 3    1.668930    8.344650   25.962458
    575 3    1.112620    7.788340   26.749199
    576 3    1.668930    8.344650   27.535940
    577 2    2.225240    0.000000    0.000000
    578 2    2.781550    0.556310    0.786741
    579 1    2.225240    0.000000    1.573482
    580 1    2.781550    0.556310    2.360223
    581 1    2.225240    0.000000    3.146965
    582 1    2.781550    0.556310    3.933706
    583 1    2.225240    0.000000    4.720447
    584 1    2.781550    0.556310    5.507188
    585 1    2.225240    0.000000    6.293929
    586 1    2.781550    0.556310    7.080670
    587 1    2.225240    0.000000    7.867411
    588 1    2.781550    0.556310    8.654153
    589 1    2.225240    0.000000    9.440894
    590 1    2.781550    0.556310   10.227635
    591 1    2.225240    0.000000   11.014376
    592 1    2.781550    0.556310   11.801117
    593 1    2.225240    0.000000   12.587858
    594 1    2.781550    0.556310   13.374599
    595 1    2.225240    0.000000   14.161341
    596 1    2.781550    0.556310   14.948082
    597 1    2.225240    0.000000   15.734823
    598 1    2.781550    0.556310   16.521564
    599 4    2.225240    0.000000   17.308305
    600 4    2.781550    0.556310   18.095046
    601 3    2.225240    0.000000   18.881788
    602 3    2.781550    0.556310   19.668529
    603 3    2.225240    0.000000   20.455270
    604 3    2.781550    0.556310   21.242011
    605 3    2.225240    0.000000   22.028752
    606 3    2.781550    0.556310   22.815493
    607 3    2.225240    0.000000   23.602234
    608 3    2.781550    0.556310   24.388976
    609 3    2.225240    0.000000   25.175717
    610 3    2.781550    0.556310   25.962458
    611 3    2.225240    0.000000   26.749199
    612 3    2.781550    0.556310   27.535940
    613 2    2.225240    1.112620    0.000000
    614 2    2.781550    1.668930    0.786741
    615 1    2.225240    1.112620    1.573482
    616 1    2.781550    1.668930    2.360223
    617 1    2.225240    1.112620    3.146965
    618 1    2.781550    1.668930    3.933706
    619 1    2.225240    1.112620    4.720447
    620 1    2.781550    1.668930    5.507188
    621 1    2.225240    1.112620    6.293929
    622 1    2.781550    1.668930    7.080670
    623 1    2.225240    1.112620    7.867411
    624 1    2.781550    1.668930    8.654153
    625 1    2.225240    1.112620    9.440894
    626 1    2.781550    1.668930   10.227635
    627 1    2.225240    1.112620   11.014376
    628 1    2.781550    1.668930   11.801117
    629 1    2.225240    1.112620   12.587858
    630 1    2.781550    1.668930   13.374599
    631 1    2.225240    1.112620   14.161341
    632 1    2.781550    1.668930   14.948082
    633 1    2.225240    1.112620   15.734823
    634 1    2.781550    1.668930   16.521564
    635 4    2.225240    1.112620   17.308305
    636 4    2.781550    1.668930   18.095046
    637 3    2.225240    1.112620   18.881788
    638 3    2.781550    1.668930   19.668529
    639 3    2.225240    1.112620   20.455270
    640 3    2.781550    1.668930   21.242011
    641 3    2.225240    1.112620   22.028752
    642 3    2.781550    1.668930   22.815493
    643 3    2.225240    1.112620   23.602234
    644 3    2.781550    1.668930   24.388976
    645 3    2.225240    1.112620   25.175717
    646 3    2.781550    1.668930   25.962458
    647 3    2.225240    1.112620   26.749199