18x32x40 FCC(111) orthogonal, long side along x

     46080  atoms

         1  atom types

     0.00000000     79.69414878 xlo xhi
     0.00000000     81.79811245 ylo yhi
   -10.00000000    100.00000000 zlo zhi

Atoms

    1  1      0.00000000      0.00000000      0.00000000
    2  1      0.00000000      2.55619101      0.00000000
    3  1      0.00000000      5.11238203      0.00000000
    4  1      0.00000000      7.66857304      0.00000000
    5  1      0.00000000     10.22476406      0.00000000
    6  1      0.00000000     12.78095507      0.00000000
    7  1      0.00000000     15.33714608      0.00000000
    8  1      0.00000000     17.89333710      0.00000000
    9  1      0.00000000     20.44952811      0.00000000
   10  1      0.00000000     23.00571913      0.00000000
   11  1      0.00000000     25.56191014      0.00000000
   12  1      0.00000000     28.11810115      0.00000000
   13  1      0.00000000     30.67429217      0.00000000
   14  1      0.00000000     33.23048318      0.00000000
   15  1      0.00000000     35.78667420      0.00000000
   16  1      0.00000000     38.34286521      0.00000000
   17  1      0.00000000     40.89905622      0.00000000
   18  1      0.00000000     43.45524724      0.00000000
   19  1      0.00000000     46.01143825      0.00000000
   20  1      0.00000000     48.56762927      0.00000000
   21  1      0.00000000     51.12382028      0.00000000
   22  1      0.00000000     53.68001129      0.00000000
   23  1      0.00000000     56.23620231      0.00000000
   24  1      0.00000000     58.79239332      0.00000000
   25  1      0.00000000     61.34858434      0.00000000
   26  1      0.00000000     63.90477535      0.00000000
   27  1      0.00000000     66.46096636      0.00000000
   28  1      0.00000000     69.01715738      0.00000000
   29  1      0.00000000     71.57334839      0.00000000
   30  1      0.00000000     74.12953941      0.00000000
   31  1      0.00000000     76.68573042      0.00000000
   32  1      0.00000000     79.24192143      0.00000000
   33  1      4.42745271      0.00000000      0.00000000
   34  1      4.42745271      2.55619101      0.00000000
   35  1      4.42745271      5.11238203      0.00000000
   36  1      4.42745271      7.66857304      0.00000000
   37  1      4.42745271     10.22476406      0.00000000
   38  1      4.42745271     12.78095507      0.00000000
   39  1      4.42745271     15.33714608      0.00000000
   40  1      4.42745271     17.89333710      0.00000000
   41  1      4.42745271     20.44952811      0.00000000
   42  1      4.42745271     23.00571913      0.00000000
   43  1      4.42745271     25.56191014      0.00000000
   44  1      4.42745271     28.11810115      0.00000000
   45  1      4.42745271     30.67429217      0.00000000
   46  1      4.42745271     33.23048318      0.00000000
   47  1      4.42745271     35.78667420      0.00000000
   48  1      4.42745271     38.34286521      0.00000000
   49  1      4.42745271     40.89905622      0.00000000
   50  1      4.42745271     43.45524724      0.00000000
   51  1      4.42745271     46.01143825      0.00000000
   52  1      4.42745271     48.56762927      0.00000000
   53  1      4.42745271     51.12382028      0.00000000
   54  1      4.42745271     53.68001129      0.00000000
   55  1      4.42745271     56.23620231      0.00000000
   56  1      4.42745271     58.79239332      0.00000000
   57  1      4.42745271     61.34858434      0.00000000
   58  1      4.42745271     63.90477535      0.00000000
   59  1      4.42745271     66.46096636      0.00000000
   60  1      4.42745271     69.01715738      0.00000000
   61  1      4.42745271     71.57334839      0.00000000
   62  1      4.42745271     74.12953941      0.00000000
   63  1      4.42745271     76.68573042      0.00000000
   64  1      4.42745271     79.24192143      0.00000000
   65  1      8.85490542      0.00000000      0.00000000
   66  1      8.85490542      2.55619101      0.00000000
   67  1      8.85490542      5.11238203      0.00000000
   68  1      8.85490542      7.66857304      0.00000000
   69  1      8.85490542     10.22476406      0.00000000
   70  1      8.85490542     12.78095507      0.00000000
   71  1      8.85490542     15.33714608      0.00000000
   72  1      8.85490542     17.89333710      0.00000000
   73  1      8.85490542     20.44952811      0.00000000
   74  1      8.85490542     23.00571913      0.00000000
   75  1      8.85490542     25.56191014      0.00000000
   76  1      8.85490542     28.11810115      0.00000000
   77  1      8.85490542     30.67429217      0.00000000
   78  1      8.85490542     33.23048318      0.00000000
   79  1      8.85490542     35.78667420      0.00000000
   80  1      8.85490542     38.34286521      0.00000000
   81  1      8.85490542     40.89905622      0.00000000
   82  1      8.85490542     43.45524724      0.00000000
   83  1      8.85490542     46.01143825      0.00000000
   84  1      8.85490542     48.56762927      0.00000000
   85  1      8.85490542     51.12382028      0.00000000
   86  1      8.85490542     53.68001129      0.00000000
   87  1      8.85490542     56.23620231      0.00000000
   88  1      8.85490542     58.79239332      0.00000000
   89  1      8.85490542     61.34858434      0.00000000
   90  1      8.85490542     63.90477535      0.00000000
   91  1      8.85490542     66.46096636      0.00000000
   92  1      8.85490542     69.01715738      0.00000000
   93  1      8.85490542     71.57334839      0.00000000
   94  1      8.85490542     74.12953941      0.00000000
   95  1      8.85490542     76.68573042      0.00000000
   96  1      8.85490542     79.24192143      0.00000000
   97  1     13.28235813      0.00000000      0.00000000
   98  1     13.28235813      2.55619101      0.00000000
   99  1     13.28235813      5.11238203      0.00000000
  100  1     13.28235813      7.66857304      0.00000000
  101  1     13.28235813     10.22476406      0.00000000
  102  1     13.28235813     12.78095507      0.00000000
  103  1     13.28235813     15.33714608      0.00000000
  104  1     13.28235813     17.89333710      0.00000000
  105  1     13.28235813     20.44952811      0.00000000
  106  1     13.28235813     23.00571913      0.00000000
  107  1     13.28235813     25.56191014      0.00000000
  108  1     13.28235813     28.11810115      0.00000000
  109  1     13.28235813     30.67429217      0.00000000
  110  1     13.28235813     33.23048318      0.00000000
  111  1     13.28235813     35.78667420      0.00000000
  112  1     13.28235813     38.34286521      0.00000000
  113  1     13.28235813     40.89905622      0.00000000
  114  1     13.28235813     43.45524724      0.00000000
  115  1     13.28235813     46.01143825      0.00000000
  116  1     13.28235813     48.56762927      0.00000000
  117  1     13.28235813     51.12382028      0.00000000
  118  1     13.28235813     53.68001129      0.00000000
  119  1     13.28235813     56.23620231      0.00000000
  120  1     13.28235813     58.79239332      0.00000000
  121  1     13.28235813     61.34858434      0.00000000
  122  1     13.28235813     63.90477535      0.00000000
  123  1     13.28235813     66.46096636      0.00000000
  124  1     13.28235813     69.01715738      0.00000000
  125  1     13.28235813     71.57334839      0.00000000
  126  1     13.28235813     74.12953941      0.00000000
  127  1     13.28235813     76.68573042      0.00000000
  128  1     13.28235813     79.24192143      0.00000000
  129  1     17.70981084      0.00000000      0.00000000
  130  1     17.70981084      2.55619101      0.00000000
  131  1     17.70981084      5.11238203      0.00000000
  132  1     17.70981084      7.66857304      0.00000000
  133  1     17.70981084     10.22476406      0.00000000
  134  1     17.70981084     12.78095507      0.00000000
  135  1     17.70981084     15.33714608      0.00000000
  136  1     17.70981084     17.89333710      0.00000000
  137  1     17.70981084     20.44952811      0.00000000
  138  1     17.70981084     23.00571913      0.00000000
  139  1     17.70981084     25.56191014      0.00000000
  140  1     17.70981084     28.11810115      0.00000000
  141  1     17.70981084     30.67429217      0.00000000
  142  1     17.70981084     33.23048318      0.00000000
  143  1     17.70981084     35.78667420      0.00000000
  144  1     17.70981084     38.34286521      0.00000000
  145  1     17.70981084     40.89905622      0.00000000
  146  1     17.70981084     43.45524724      0.00000000
  147  1     17.70981084     46.01143825      0.00000000
  148  1     17.70981084     48.56762927      0.00000000
  149  1     17.70981084     51.12382028      0.00000000
  150  1     17.70981084     53.68001129      0.00000000
  151  1     17.70981084     56.23620231      0.00000000
  152  1     17.70981084     58.79239332      0.00000000
  153  1     17.70981084     61.34858434      0.00000000
  154  1     17.70981084     63.90477535      0.00000000
  155  1     17.70981084     66.46096636      0.00000000
  156  1     17.70981084     69.01715738      0.00000000
  157  1     17.70981084     71.57334839      0.00000000
  158  1     17.70981084     74.12953941      0.00000000
  159  1     17.70981084     76.68573042      0.00000000
  160  1     17.70981084     79.24192143      0.00000000
  161  1     22.13726355      0.00000000      0.00000000
  162  1     22.13726355      2.55619101      0.00000000
  163  1     22.13726355      5.11238203      0.00000000
  164  1     22.13726355      7.66857304      0.00000000
  165  1     22.13726355     10.22476406      0.00000000
  166  1     22.13726355     12.78095507      0.00000000
  167  1     22.13726355     15.33714608      0.00000000
  168  1     22.13726355     17.89333710      0.00000000
  169  1     22.13726355     20.44952811      0.00000000
  170  1     22.13726355     23.00571913      0.00000000
  171  1     22.13726355     25.56191014      0.00000000
  172  1     22.13726355     28.11810115      0.00000000
  173  1     22.13726355     30.67429217      0.00000000
  174  1     22.13726355     33.23048318      0.00000000
  175  1     22.13726355     35.78667420      0.00000000
  176  1     22.13726355     38.34286521      0.00000000
  177  1     22.13726355     40.89905622      0.00000000
  178  1     22.13726355     43.45524724      0.00000000
  179  1     22.13726355     46.01143825      0.00000000
  180  1     22.13726355     48.56762927      0.00000000
  181  1     22.13726355     51.12382028      0.00000000
  182  1     22.13726355     53.68001129      0.00000000
  183  1     22.13726355     56.23620231      0.00000000
  184  1     22.13726355     58.79239332      0.00000000
  185  1     22.13726355     61.34858434      0.00000000
  186  1     22.13726355     63.90477535      0.00000000
  187  1     22.13726355     66.46096636      0.00000000
  188  1     22.13726355     69.01715738      0.00000000
  189  1     22.13726355     71.57334839      0.00000000
  190  1     22.13726355     74.12953941      0.00000000
  191  1     22.13726355     76.68573042      0.00000000
  192  1     22.13726355     79.24192143      0.00000000
  193  1     26.56471626      0.00000000      0.00000000
  194  1     26.56471626      2.55619101      0.00000000
  195  1     26.56471626      5.11238203      0.00000000
  196  1     26.56471626      7.66857304      0.00000000
  197  1     26.56471626     10.22476406      0.00000000
  198  1     26.56471626     12.78095507      0.00000000
  199  1     26.56471626     15.33714608      0.00000000
  200  1     26.56471626     17.89333710      0.00000000
  201  1     26.56471626     20.44952811      0.00000000
  202  1     26.56471626     23.00571913      0.00000000
  203  1     26.56471626     25.56191014      0.00000000
  204  1     26.56471626     28.11810115      0.00000000
  205  1     26.56471626     30.67429217      0.00000000
  206  1     26.56471626     33.23048318      0.00000000
  207  1     26.56471626     35.78667420      0.00000000
  208  1     26.56471626     38.34286521      0.00000000
  209  1     26.56471626     40.89905622      0.00000000
  210  1     26.56471626     43.45524724      0.00000000
  211  1     26.56471626     46.01143825      0.00000000
  212  1     26.56471626     48.56762927      0.00000000
  213  1     26.56471626     51.12382028      0.00000000
  214  1     26.56471626     53.68001129      0.00000000
  215  1     26.56471626     56.23620231      0.00000000
  216  1     26.56471626     58.79239332      0.00000000
  217  1     26.56471626     61.34858434      0.00000000
  218  1     26.56471626     63.90477535      0.00000000
  219  1     26.56471626     66.46096636      0.00000000
  220  1     26.56471626     69.01715738      0.00000000
  221  1     26.56471626     71.57334839      0.00000000
  222  1     26.56471626     74.12953941      0.00000000
  223  1     26.56471626     76.68573042      0.00000000
  224  1     26.56471626     79.24192143      0.00000000
  225  1     30.99216897      0.00000000      0.00000000
  226  1     30.99216897      2.55619101      0.00000000
  227  1     30.99216897      5.11238203      0.00000000
  228  1     30.99216897      7.66857304      0.00000000
  229  1     30.99216897     10.22476406      0.00000000
  230  1     30.99216897     12.78095507      0.00000000
  231  1     30.99216897     15.33714608      0.00000000
  232  1     30.99216897     17.89333710      0.00000000
  233  1     30.99216897     20.44952811      0.00000000
  234  1     30.99216897     23.00571913      0.00000000
  235  1     30.99216897     25.56191014      0.00000000
  236  1     30.99216897     28.11810115      0.00000000
  237  1     30.99216897     30.67429217      0.00000000
  238  1     30.99216897     33.23048318      0.00000000
  239  1     30.99216897     35.78667420      0.00000000
  240  1     30.99216897     38.34286521      0.00000000
  241  1     30.99216897     40.89905622      0.00000000
  242  1     30.99216897     43.45524724      0.00000000
  243  1     30.99216897     46.01143825      0.00000000
  244  1     30.99216897     48.56762927      0.00000000
  245  1     30.99216897     51.12382028      0.00000000
  246  1     30.99216897     53.68001129      0.00000000
  247  1     30.99216897     56.23620231      0.00000000
  248  1     30.99216897     58.79239332      0.00000000
  249  1     30.99216897     61.34858434      0.00000000
  250  1     30.99216897     63.90477535      0.00000000
  251  1     30.99216897     66.46096636      0.00000000
  252  1     30.99216897     69.01715738      0.00000000
  253  1     30.99216897     71.57334839      0.00000000
  254  1     30.99216897     74.12953941      0.00000000
  255  1     30.99216897     76.68573042      0.00000000
  256  1     30.99216897     79.24192143      0.00000000
  257  1     35.41962168      0.00000000      0.00000000
  258  1     35.41962168      2.55619101      0.00000000
  259  1     35.41962168      5.11238203      0.00000000
  260  1     35.41962168      7.66857304      0.00000000
  261  1     35.41962168     10.22476406      0.00000000
  262  1     35.41962168     12.78095507      0.00000000
  263  1     35.41962168     15.33714608      0.00000000
  264  1     35.41962168     17.89333710      0.00000000
  265  1     35.41962168     20.44952811      0.00000000
  266  1     35.41962168     23.00571913      0.00000000
  267  1     35.41962168     25.56191014      0.00000000
  268  1     35.41962168     28.11810115      0.00000000
  269  1     35.41962168     30.67429217      0.00000000
  270  1     35.41962168     33.23048318      0.00000000
  271  1     35.41962168     35.78667420      0.00000000
  272  1     35.41962168     38.34286521      0.00000000
  273  1     35.41962168     40.89905622      0.00000000
  274  1     35.41962168     43.45524724      0.00000000
  275  1     35.41962168     46.01143825      0.00000000
  276  1     35.41962168     48.56762927      0.00000000
  277  1     35.41962168     51.12382028      0.00000000
  278  1     35.41962168     53.68001129      0.00000000
  279  1     35.41962168     56.23620231      0.00000000
  280  1     35.41962168     58.79239332      0.00000000
  281  1     35.41962168     61.34858434      0.00000000
  282  1     35.41962168     63.90477535      0.00000000
  283  1     35.41962168     66.46096636      0.00000000
  284  1     35.41962168     69.01715738      0.00000000
  285  1     35.41962168     71.57334839      0.00000000
  286  1     35.41962168     74.12953941      0.00000000
  287  1     35.41962168     76.68573042      0.00000000
  288  1     35.41962168     79.24192143      0.00000000
  289  1     39.84707439      0.00000000      0.00000000
  290  1     39.84707439      2.55619101      0.00000000
  291  1     39.84707439      5.11238203      0.00000000
  292  1     39.84707439      7.66857304      0.00000000
  293  1     39.84707439     10.22476406      0.00000000
  294  1     39.84707439     12.78095507      0.00000000
  295  1     39.84707439     15.33714608      0.00000000
  296  1     39.84707439     17.89333710      0.00000000
  297  1     39.84707439     20.44952811      0.00000000
  298  1     39.84707439     23.00571913      0.00000000
  299  1     39.84707439     25.56191014      0.00000000
  300  1     39.84707439     28.11810115      0.00000000
  301  1     39.84707439     30.67429217      0.00000000
  302  1     39.84707439     33.23048318      0.00000000
  303  1     39.84707439     35.78667420      0.00000000
  304  1     39.84707439     38.34286521      0.00000000
  305  1     39.84707439     40.89905622      0.00000000
  306  1     39.84707439     43.45524724      0.00000000
  307  1     39.84707439     46.01143825      0.00000000
  308  1     39.84707439     48.56762927      0.00000000
  309  1     39.84707439     51.12382028      0.00000000
  310  1     39.84707439     53.68001129      0.00000000
  311  1     39.84707439     56.23620231      0.00000000
  312  1     39.84707439     58.79239332      0.00000000
  313  1     39.84707439     61.34858434      0.00000000
  314  1     39.84707439     63.90477535      0.00000000
  315  1     39.84707439     66.46096636      0.00000000
  316  1     39.84707439     69.01715738      0.00000000
  317  1     39.84707439     71.57334839      0.00000000
  318  1     39.84707439     74.12953941      0.00000000
  319  1     39.84707439     76.68573042      0.00000000
  320  1     39.84707439     79.24192143      0.00000000
  321  1     44.27452710      0.00000000      0.00000000
  322  1     44.27452710      2.55619101      0.00000000
  323  1     44.27452710      5.11238203      0.00000000
  324  1     44.27452710      7.66857304      0.00000000
  325  1     44.27452710     10.22476406      0.00000000
  326  1     44.27452710     12.78095507      0.00000000
  327  1     44.27452710     15.33714608      0.00000000
  328  1     44.27452710     17.89333710      0.00000000
  329  1     44.27452710     20.44952811      0.00000000
  330  1     44.27452710     23.00571913      0.00000000
  331  1     44.27452710     25.56191014      0.00000000
  332  1     44.27452710     28.11810115      0.00000000
  333  1     44.27452710     30.67429217      0.00000000
  334  1     44.27452710     33.23048318      0.00000000
  335  1     44.27452710     35.78667420      0.00000000
  336  1     44.27452710     38.34286521      0.00000000
  337  1     44.27452710     40.89905622      0.00000000
  338  1     44.27452710     43.45524724      0.00000000
  339  1     44.27452710     46.01143825      0.00000000
  340  1     44.27452710     48.56762927      0.00000000
  341  1     44.27452710     51.12382028      0.00000000
  342  1     44.27452710     53.68001129      0.00000000
  343  1     44.27452710     56.23620231      0.00000000
  344  1     44.27452710     58.79239332      0.00000000
  345  1     44.27452710     61.34858434      0.00000000
  346  1     44.27452710     63.90477535      0.00000000
  347  1     44.27452710     66.46096636      0.00000000
  348  1     44.27452710     69.01715738      0.00000000
  349  1     44.27452710     71.57334839      0.00000000
  350  1     44.27452710     74.12953941      0.00000000
  351  1     44.27452710     76.68573042      0.00000000
  352  1     44.27452710     79.24192143      0.00000000
  353  1     48.70197981      0.00000000      0.00000000
  354  1     48.70197981      2.55619101      0.00000000
  355  1     48.70197981      5.11238203      0.00000000
  356  1     48.70197981      7.66857304      0.00000000
  357  1     48.70197981     10.22476406      0.00000000
  358  1     48.70197981     12.78095507      0.00000000
  359  1     48.70197981     15.33714608      0.00000000
  360  1     48.70197981     17.89333710      0.00000000
  361  1     48.70197981     20.44952811      0.00000000
  362  1     48.70197981     23.00571913      0.00000000
  363  1     48.70197981     25.56191014      0.00000000
  364  1     48.70197981     28.11810115      0.00000000
  365  1     48.70197981     30.67429217      0.00000000
  366  1     48.70197981     33.23048318      0.00000000
  367  1     48.70197981     35.78667420      0.00000000
  368  1     48.70197981     38.34286521      0.00000000
  369  1     48.70197981     40.89905622      0.00000000
  370  1     48.70197981     43.45524724      0.00000000
  371  1     48.70197981     46.01143825      0.00000000
  372  1     48.70197981     48.56762927      0.00000000
  373  1     48.70197981     51.12382028      0.00000000
  374  1     48.70197981     53.68001129      0.00000000
  375  1     48.70197981     56.23620231      0.00000000
  376  1     48.70197981     58.79239332      0.00000000
  377  1     48.70197981     61.34858434      0.00000000
  378  1     48.70197981     63.90477535      0.00000000
  379  1     48.70197981     66.46096636      0.00000000
  380  1     48.70197981     69.01715738      0.00000000
  381  1     48.70197981     71.57334839      0.00000000
  382  1     48.70197981     74.12953941      0.00000000
  383  1     48.70197981     76.68573042      0.00000000
  384  1     48.70197981     79.24192143      0.00000000
  385  1     53.12943252      0.00000000      0.00000000
  386  1     53.12943252      2.55619101      0.00000000
  387  1     53.12943252      5.11238203      0.00000000
  388  1     53.12943252      7.66857304      0.00000000
  389  1     53.12943252     10.22476406      0.00000000
  390  1     53.12943252     12.78095507      0.00000000
  391  1     53.12943252     15.33714608      0.00000000
  392  1     53.12943252     17.89333710      0.00000000
  393  1     53.12943252     20.44952811      0.00000000
  394  1     53.12943252     23.00571913      0.00000000
  395  1     53.12943252     25.56191014      0.00000000
  396  1     53.12943252     28.11810115      0.00000000
  397  1     53.12943252     30.67429217      0.00000000
  398  1     53.12943252     33.23048318      0.00000000
  399  1     53.12943252     35.78667420      0.00000000
  400  1     53.12943252     38.34286521      0.00000000
  401  1     53.12943252     40.89905622      0.00000000
  402  1     53.12943252     43.45524724      0.00000000
  403  1     53.12943252     46.01143825      0.00000000
  404  1     53.12943252     48.56762927      0.00000000
  405  1     53.12943252     51.12382028      0.00000000
  406  1     53.12943252     53.68001129      0.00000000
  407  1     53.12943252     56.23620231      0.00000000
  408  1     53.12943252     58.79239332      0.00000000
  409  1     53.12943252     61.34858434      0.00000000
  410  1     53.12943252     63.90477535      0.00000000
  411  1     53.12943252     66.46096636      0.00000000
  412  1     53.12943252     69.01715738      0.00000000
  413  1     53.12943252     71.57334839      0.00000000
  414  1     53.12943252     74.12953941      0.00000000
  415  1     53.12943252     76.68573042      0.00000000
  416  1     53.12943252     79.24192143      0.00000000
  417  1     57.55688523      0.00000000      0.00000000
  418  1     57.55688523      2.55619101      0.00000000
  419  1     57.55688523      5.11238203      0.00000000
  420  1     57.55688523      7.66857304      0.00000000
  421  1     57.55688523     10.22476406      0.00000000
  422  1     57.55688523     12.78095507      0.00000000
  423  1     57.55688523     15.33714608      0.00000000
  424  1     57.55688523     17.89333710      0.00000000
  425  1     57.55688523     20.44952811      0.00000000
  426  1     57.55688523     23.00571913      0.00000000
  427  1     57.55688523     25.56191014      0.00000000
  428  1     57.55688523     28.11810115      0.00000000
  429  1     57.55688523     30.67429217      0.00000000
  430  1     57.55688523     33.23048318      0.00000000
  431  1     57.55688523     35.78667420      0.00000000
  432  1     57.55688523     38.34286521      0.00000000
  433  1     57.55688523     40.89905622      0.00000000
  434  1     57.55688523     43.45524724      0.00000000
  435  1     57.55688523     46.01143825      0.00000000
  436  1     57.55688523     48.56762927      0.00000000
  437  1     57.55688523     51.12382028      0.00000000
  438  1     57.55688523     53.68001129      0.00000000
  439  1     57.55688523     56.23620231      0.00000000
  440  1     57.55688523     58.79239332      0.00000000
  441  1     57.55688523     61.34858434      0.00000000
  442  1     57.55688523     63.90477535      0.00000000
  443  1     57.55688523     66.46096636      0.00000000
  444  1     57.55688523     69.01715738      0.00000000
  445  1     57.55688523     71.57334839      0.00000000
  446  1     57.55688523     74.12953941      0.00000000
  447  1     57.55688523     76.68573042      0.00000000
  448  1     57.55688523     79.24192143      0.00000000
  449  1     61.98433794      0.00000000      0.00000000
  450  1     61.98433794      2.55619101      0.00000000
  451  1     61.98433794      5.11238203      0.00000000
  452  1     61.98433794      7.66857304      0.00000000
  453  1     61.98433794     10.22476406      0.00000000
  454  1     61.98433794     12.78095507      0.00000000
  455  1     61.98433794     15.33714608      0.00000000
  456  1     61.98433794     17.89333710      0.00000000
  457  1     61.98433794     20.44952811      0.00000000
  458  1     61.98433794     23.00571913      0.00000000
  459  1     61.98433794     25.56191014      0.00000000
  460  1     61.98433794     28.11810115      0.00000000
  461  1     61.98433794     30.67429217      0.00000000
  462  1     61.98433794     33.23048318      0.00000000
  463  1     61.98433794     35.78667420      0.00000000
  464  1     61.98433794     38.34286521      0.00000000
  465  1     61.98433794     40.89905622      0.00000000
  466  1     61.98433794     43.45524724      0.00000000
  467  1     61.98433794     46.01143825      0.00000000
  468  1     61.98433794     48.56762927      0.00000000
  469  1     61.98433794     51.12382028      0.00000000
  470  1     61.98433794     53.68001129      0.00000000
  471  1     61.98433794     56.23620231      0.00000000
  472  1     61.98433794     58.79239332      0.00000000
  473  1     61.98433794     61.34858434      0.00000000
  474  1     61.98433794     63.90477535      0.00000000
  475  1     61.98433794     66.46096636      0.00000000
  476  1     61.98433794     69.01715738      0.00000000
  477  1     61.98433794     71.57334839      0.00000000
  478  1     61.98433794     74.12953941      0.00000000
  479  1     61.98433794     76.68573042      0.00000000
  480  1     61.98433794     79.24192143      0.00000000
  481  1     66.41179065      0.00000000      0.00000000
  482  1     66.41179065      2.55619101      0.00000000
  483  1     66.41179065      5.11238203      0.00000000
  484  1     66.41179065      7.66857304      0.00000000
  485  1     66.41179065     10.22476406      0.00000000
  486  1     66.41179065     12.78095507      0.00000000
  487  1     66.41179065     15.33714608      0.00000000
  488  1     66.41179065     17.89333710      0.00000000
  489  1     66.41179065     20.44952811      0.00000000
  490  1     66.41179065     23.00571913      0.00000000
  491  1     66.41179065     25.56191014      0.00000000
  492  1     66.41179065     28.11810115      0.00000000
  493  1     66.41179065     30.67429217      0.00000000
  494  1     66.41179065     33.23048318      0.00000000
  495  1     66.41179065     35.78667420      0.00000000
  496  1     66.41179065     38.34286521      0.00000000
  497  1     66.41179065     40.89905622      0.00000000
  498  1     66.41179065     43.45524724      0.00000000
  499  1     66.41179065     46.01143825      0.00000000
  500  1     66.41179065     48.56762927      0.00000000
  501  1     66.41179065     51.12382028      0.00000000
  502  1     66.41179065     53.68001129      0.00000000
  503  1     66.41179065     56.23620231      0.00000000
  504  1     66.41179065     58.79239332      0.00000000
  505  1     66.41179065     61.34858434      0.00000000
  506  1     66.41179065     63.90477535      0.00000000
  507  1     66.41179065     66.46096636      0.00000000
  508  1     66.41179065     69.01715738      0.00000000
  509  1     66.41179065     71.57334839      0.00000000
  510  1     66.41179065     74.12953941      0.00000000
  511  1     66.41179065     76.68573042      0.00000000
  512  1     66.41179065     79.24192143      0.00000000
  513  1     70.83924336      0.00000000      0.00000000
  514  1     70.83924336      2.55619101      0.00000000
  515  1     70.83924336      5.11238203      0.00000000
  516  1     70.83924336      7.66857304      0.00000000
  517  1     70.83924336     10.22476406      0.00000000
  518  1     70.83924336     12.78095507      0.00000000
  519  1     70.83924336     15.33714608      0.00000000
  520  1     70.83924336     17.89333710      0.00000000
  521  1     70.83924336     20.44952811      0.00000000
  522  1     70.83924336     23.00571913      0.00000000