LAMMPS (21 May 2008)
# Full atom MD for 2+1 D Cu block simulation
boundary     p p fs
units		    metal
atom_style   atomic

# read in initial geometry
read_data    data.pos
  orthogonal box = (0 0 -10) to (79.6941 81.7981 100)
  1 by 1 by 1 processor grid
  46080 atoms

# define group
group        upper  id > 44928
1152 atoms in group upper
group        bottom id < 1153
1152 atoms in group bottom

# EAM potential
pair_style   eam
pair_coeff   * * cuu3.eam

# Atomic property
mass         1 63.55

# Set variables for Langevin thermostat
variable     r equal 471081
variable     t equal 0
variable     d equal 1
# 
neighbor     4.0 nsq 

# Thermostat
fix          1 all langevin $t $t $d $r
fix          1 all langevin 0 $t $d $r
fix          1 all langevin 0 0 $d $r
fix          1 all langevin 0 0 1 $r
fix          1 all langevin 0 0 1 471081
# NVE
fix          2 all nve
# Add indenter
fix          3 bottom indent 1e4 cylinder y 39.8 -499.999 500 units box
fix_modify   3 energy yes
# Apply extra load on top; it will give the same result if added on bottom
# at the same time, the topmost layer is kept in the same plane
fix          4 upper aveforce NULL NULL -0.01

# Thermo output
thermo       50
thermo_style custom step temp ke f_3 etotal

# Dump trajectory and bottom info to visualize 
dump         1 all atom 500 dump3D.lammpstrj
dump         2 bottom custom 200 bottom.dump tag x y z fx fy fz

# 20000 should be enough to equilibrate
run          20000
Memory usage per processor = 34.3413 Mbytes
Step Temp KinEng 3 TotEng 
       0            0            0 0.00010595912   -162158.53 
      50   0.52249187    3.1120547            0   -162158.51 
     100   0.34169703    2.0352084            0    -162158.5 
     150   0.25446761    1.5156545            0   -162158.73 
     200   0.28880304    1.7201624            0   -162158.86 
     250   0.31250672    1.8613457            0   -162158.98 
     300   0.27507454     1.638393            0   -162159.14 
     350   0.24222955    1.4427624            0   -162159.25 
     400   0.24755605    1.4744879            0   -162159.39 
     450   0.25208554    1.5014664            0   -162159.51 
     500   0.23190568    1.3812715            0    -162159.6 
     550   0.21185188    1.2618276            0   -162159.72 
     600   0.20980239    1.2496204            0   -162159.82 
     650   0.20909785    1.2454241            0   -162159.91 
     700   0.19503504    1.1616635            0   -162160.01 
     750    0.1787659    1.0647616            0   -162160.09 
     800   0.18322414    1.0913156            0   -162160.18 
     850    0.2010613    1.1975569            0   -162160.27 
     900   0.15165219   0.90326746            0   -162160.35 
     950   0.13863931   0.82576044            0   -162160.41 
    1000   0.18421039    1.0971899            0   -162160.49 
    1050    0.1124837   0.66997298            0   -162160.55 
    1100   0.17532424    1.0442624            0   -162160.62 
    1150    0.1024574   0.61025453            0   -162160.67 
    1200   0.15550992   0.92624479            0   -162160.74 
    1250   0.10463964   0.62325232            0   -162160.79 
    1300   0.13078907     0.779003            0   -162160.84 
    1350   0.11707911   0.69734407            0   -162160.89 
    1400  0.094338261    0.5618955            0   -162160.94 
    1450   0.12658061   0.75393665            0   -162160.98 
    1500  0.088228246   0.52550316            0   -162161.01 
    1550   0.10008682   0.59613494            0   -162161.04 
    1600   0.10335556   0.61560412            0   -162161.05 
    1650  0.071049613   0.42318415            0   -162161.07 
    1700  0.092499262   0.55094209            0    -162161.1 
    1750   0.10201232   0.60760356            0   -162161.17 
    1800  0.072568963   0.43223368            0   -162161.26 
    1850  0.079205819   0.47176398            0   -162161.31 
    1900  0.096541555   0.57501871            0   -162161.32 
    1950  0.062947265   0.37492513            0   -162161.31 
    2000  0.080925679   0.48200777            0   -162161.33 
    2050  0.082312019   0.49026505            0    -162161.4 
    2100  0.063931767     0.380789            0   -162161.44 
    2150  0.074703916   0.44494983            0   -162161.45 
    2200  0.071267028   0.42447912 5.1486263e-07   -162161.45 
    2250  0.069724206    0.4152898 0.00049197327    -162161.5 
    2300  0.059977094   0.35723426 0.00015367554   -162161.54 
    2350  0.071009775   0.42294687 0.00032214113   -162161.54 
    2400  0.064827917   0.38612663 3.8773567e-05   -162161.55 
    2450  0.057832236    0.3444591 0.0029447465    -162161.6 
    2500  0.067146035   0.39993375 6.7302193e-06   -162161.63 
    2550  0.056269468   0.33515098 0.00050162565   -162161.63 
    2600  0.057088479   0.34002916 0.0019402882   -162161.65 
    2650  0.053372228    0.3178945 0.00043758261   -162161.69 
    2700  0.060683361   0.36144091 0.00065048788    -162161.7 
    2750  0.050985409   0.30367818 0.00059157823    -162161.7 
    2800  0.050020621   0.29793173 0.0013286814   -162161.74 
    2850  0.054472699   0.32444911 0.00011625641   -162161.76 
    2900  0.047275282      0.28158 0.0023912137   -162161.76 
    2950  0.051377874   0.30601577 0.00044935688   -162161.79 
    3000  0.044227767   0.26342846 0.0012132538   -162161.81 
    3050  0.047690301   0.28405193 0.0007813976   -162161.81 
    3100  0.046380662   0.27625149 0.0012166784   -162161.83 
    3150  0.043605971   0.25972493 0.0017769638   -162161.86 
    3200  0.040270046   0.23985557 0.00045333188   -162161.86 
    3250  0.045341189    0.2700602 0.0038575852   -162161.88 
    3300  0.038993952   0.23225493 0.00046382053   -162161.89 
    3350  0.039449223    0.2349666 0.0012485733   -162161.88 
    3400  0.042111544   0.25082386 0.0015411993   -162161.87 
    3450  0.039788189   0.23698555 0.00058007868   -162161.85 
    3500   0.03574785   0.21292057 0.0020809455   -162161.83 
    3550  0.039703801   0.23648292 0.0013048779   -162161.83 
    3600  0.036152056   0.21532809 0.0028119311   -162161.85 
    3650  0.036796528   0.21916668 0.0013613499   -162161.85 
    3700     0.034981   0.20835307 0.0014794045   -162161.85 
    3750  0.035429786   0.21102612 0.0015363439   -162161.84 
    3800  0.032635138    0.1943807 0.0012144471   -162161.82 
    3850  0.035385401   0.21076175 0.0032309492   -162161.82 
    3900  0.031583674   0.18811799 0.0018524131   -162161.83 
    3950  0.030770593   0.18327513 0.0013911308   -162161.83 
    4000  0.033585852   0.20004332 0.0023653281   -162161.82 
    4050  0.029177057   0.17378375  0.001448905   -162161.81 
    4100  0.030343011   0.18072838 0.0032899889   -162161.81 
    4150  0.029036467   0.17294637 0.0019894445   -162161.82 
    4200  0.028861284   0.17190295 0.0016812434   -162161.81 
    4250  0.026937539   0.16044478 0.0024556489    -162161.8 
    4300  0.027421939   0.16332996 0.0027192765    -162161.8 
    4350  0.026716313   0.15912712 0.0022620802    -162161.8 
    4400  0.025900766   0.15426958 0.0023178186    -162161.8 
    4450  0.024307356   0.14477895 0.0022751643   -162161.79 
    4500  0.025915332   0.15435634 0.0029181085   -162161.79 
    4550  0.022973526   0.13683442  0.002735373   -162161.78 
    4600  0.023559002   0.14032162 0.0021243551   -162161.78 
    4650  0.023335658   0.13899134 0.0028748297   -162161.77 
    4700   0.02190012   0.13044102 0.0027312051   -162161.77 
    4750  0.021344374    0.1271309 0.0028310863   -162161.77 
    4800   0.02200026   0.13103747 0.0023986654   -162161.76 
    4850  0.020004214   0.11914866 0.0031255416   -162161.75 
    4900  0.020345713   0.12118269 0.0035595435   -162161.75 
    4950  0.019459778   0.11590591 0.0027275041   -162161.75 
    5000  0.019431391   0.11573683  0.003876301   -162161.74 
    5050  0.019081653   0.11365372 0.0040760349   -162161.74 
    5100  0.017819051   0.10613345 0.0033322052   -162161.74 
    5150  0.018029013   0.10738401 0.0037589808   -162161.74 
    5200  0.017461737   0.10400521 0.0032444766   -162161.73 
    5250  0.017092856    0.1018081 0.0035596189   -162161.73 
    5300  0.016045736  0.095571261 0.0037086404   -162161.72 
    5350  0.016409998  0.097740874  0.003610178   -162161.71 
    5400  0.015726632  0.093670623 0.0045965943   -162161.71 
    5450  0.014909424  0.088803186 0.0041721714   -162161.71 
    5500  0.014787993   0.08807992 0.0035258275   -162161.71 
    5550  0.014667374  0.087361493  0.004112502    -162161.7 
    5600  0.013566634  0.080805291 0.0041259885    -162161.7 
    5650  0.013771084  0.082023032 0.0040463076   -162161.69 
    5700  0.013103097  0.078044378 0.0047187959   -162161.69 
    5750  0.012808064  0.076287113 0.0044930656   -162161.68 
    5800  0.012371361   0.07368603  0.003877673   -162161.68 
    5850  0.012004993  0.071503878 0.0044771509   -162161.67 
    5900  0.011613064   0.06916948 0.0049830314   -162161.67 
    5950  0.011386949  0.067822696 0.0046591151   -162161.66 
    6000     0.010962  0.065291625  0.004398903   -162161.66 
    6050  0.010684897  0.063641153 0.0051052095   -162161.65 
    6100  0.010234418   0.06095802 0.0045126352   -162161.65 
    6150  0.010122587  0.060291931 0.0050262023   -162161.64 
    6200 0.0097052687   0.05780631 0.0053636879   -162161.64 
    6250 0.0092918789  0.055344087 0.0045880391   -162161.63 
    6300 0.0093293597  0.055567329 0.0048485576   -162161.63 
    6350 0.0087366421  0.052036998 0.0057542877   -162161.62 
    6400 0.0085297972  0.050804992 0.0050484112   -162161.62 
    6450 0.0084552992  0.050361269 0.0047994766   -162161.61 
    6500 0.0079732432  0.047490058 0.0057777369    -162161.6 
    6550 0.0077307909  0.046045968 0.0050383402    -162161.6 
    6600  0.007676891  0.045724931 0.0052495754   -162161.59 
    6650 0.0073098989   0.04353906 0.0056240487   -162161.58 
    6700 0.0070605256  0.042053749 0.0050212095   -162161.58 
    6750 0.0068818717  0.040989655 0.0056093944   -162161.57 
    6800 0.0066621017  0.039680665 0.0059231999   -162161.56 
    6850 0.0063994869  0.038116485 0.0053984409   -162161.55 
    6900 0.0062179458  0.037035193 0.0055133944   -162161.55 
    6950 0.0060036317    0.0357587 0.0061377024   -162161.54 
    7000 0.0058200257   0.03466511 0.0055755318   -162161.54 
    7050 0.0056289321  0.033526923 0.0053066524   -162161.53 
    7100 0.0053702762  0.031986322 0.0061983593   -162161.52 
    7150 0.0052777563  0.031435257 0.0058688637   -162161.52 
    7200  0.005075115  0.030228289 0.0056517819   -162161.51 
    7250 0.0048516427  0.028897249 0.0062346997   -162161.51 
    7300 0.0047413028  0.028240045 0.0060001152    -162161.5 
    7350 0.0045653234   0.02719188 0.0058501454   -162161.49 
    7400 0.0043911326  0.026154368 0.0061697185   -162161.49 
    7450 0.0042490508  0.025308104 0.0062064399   -162161.48 
    7500 0.0041067256  0.024460389 0.0060932818   -162161.48 
    7550 0.0039363105  0.023445367 0.0062290329   -162161.47 
    7600 0.0038397306   0.02287012 0.0062414488   -162161.47 
    7650  0.003693795  0.022000901 0.0061041777   -162161.46 
    7700 0.0035614045   0.02121236 0.0064635938   -162161.46 
    7750 0.0034111681  0.020317525 0.0064913968   -162161.45 
    7800 0.0033496525  0.019951127 0.0061963922   -162161.45 
    7850  0.003195916  0.019035445 0.0065244417   -162161.44 
    7900 0.0030645996  0.018253302 0.0065265777   -162161.44 
    7950 0.0029922346  0.017822283 0.0063600186   -162161.43 
    8000 0.0028872723  0.017197108 0.0067207124   -162161.43 
    8050  0.002737045  0.016302328 0.0066796593   -162161.42 
    8100 0.0026763608  0.015940882 0.0065198714   -162161.42 
    8150 0.0025671442  0.015290368 0.0067826523   -162161.41 
    8200 0.0024672115  0.014695151 0.0068699439   -162161.41 
    8250 0.0023685621  0.014107578 0.0068045285    -162161.4 
    8300 0.0022951754  0.013670474 0.0068150548    -162161.4 
    8350 0.0021889878  0.013038002 0.0068872421    -162161.4 
    8400 0.0021175314  0.012612395 0.0069708156   -162161.39 
    8450 0.0020287342  0.012083503 0.0068061032   -162161.39 
    8500 0.0019272039   0.01147877 0.0068982619   -162161.38 
    8550 0.0018925317  0.011272256 0.0070870548   -162161.38 
    8600 0.0017858806  0.010637023 0.0069228014   -162161.38 
    8650 0.0017158234   0.01021975 0.0070955215   -162161.37 
    8700 0.0016566215  0.009867133 0.0072089197   -162161.37 
    8750 0.0015911143 0.0094769606 0.0070165033   -162161.36 
    8800 0.0015105288 0.0089969788 0.0071181763   -162161.36 
    8850  0.001465198 0.0087269803 0.0072395644   -162161.36 
    8900 0.0013935888 0.0083004634 0.0070882898   -162161.35 
    8950 0.0013477463  0.008027417 0.0071169927   -162161.35 
    9000 0.0012777752  0.007610657 0.0073163403   -162161.34 
    9050 0.0012336511 0.0073478458 0.0072204546   -162161.34 
    9100 0.0011813312 0.0070362192 0.0071948831   -162161.34 
    9150 0.0011290054 0.0067245574 0.0072671684   -162161.33 
    9200 0.0010777424 0.0064192256 0.0073196133   -162161.33 
    9250 0.0010425556 0.0062096471 0.0073097672   -162161.33 
    9300 0.00099117251 0.0059036001 0.0073153205   -162161.32 
    9350 0.00095183461 0.0056692966 0.0073643017   -162161.32 
    9400 0.0009044306 0.0053869499 0.0073516142   -162161.32 
    9450 0.0008753629 0.0052138175 0.0073343646   -162161.31 
    9500 0.00083203807  0.004955767 0.0074101743   -162161.31 
    9550 0.00078932001 0.0047013307  0.007489704   -162161.31 
    9600 0.00076551008 0.0045595145 0.0074212963    -162161.3 
    9650 0.00072308132 0.0043068012 0.0074533608    -162161.3 
    9700 0.00069185431 0.0041208076 0.0074973345    -162161.3 
    9750 0.00065964457 0.0039289606 0.0074804925   -162161.29 
    9800 0.00063437658   0.00377846 0.0075101494   -162161.29 
    9850 0.00059731976  0.003557743 0.0075534489   -162161.29 
    9900 0.00057445675 0.0034215668 0.0075048417   -162161.29 
    9950 0.00054899755 0.0032699272 0.0075246511   -162161.28 
   10000 0.00052030616 0.0030990362 0.0075705908   -162161.28 
   10050 0.00049448887 0.0029452638 0.0076046745   -162161.28 
   10100 0.00047691872 0.0028406129 0.0075959367   -162161.28 
   10150 0.00044746593 0.0026651869  0.007618877   -162161.27 
   10200 0.00043000723 0.0025611997 0.0076559858   -162161.27 
   10250 0.00040986071 0.0024412035 0.0076396185   -162161.27 
   10300 0.00038825233 0.0023125001 0.0076147349   -162161.27 
   10350 0.00037018799 0.0022049056 0.0076837842   -162161.27 
   10400 0.00035416262 0.0021094557 0.0076329368   -162161.26 
   10450 0.00033410133 0.0019899671 0.0076616058   -162161.26 
   10500 0.00032130593 0.0019137554 0.0077685316   -162161.26 
   10550 0.00030292735 0.0018042893  0.007731004   -162161.26 
   10600 0.00028918964  0.001722465 0.0076885561   -162161.26 
   10650 0.00027613163 0.0016446892 0.0077961006   -162161.25 
   10700 0.00026024939 0.0015500918 0.0077302351   -162161.25 
   10750 0.0002497468 0.0014875364 0.0077228392   -162161.25 
   10800 0.00023482243 0.0013986443 0.0078072058   -162161.25 
   10850 0.00022549731 0.0013431022 0.0078124304   -162161.25 
   10900 0.00021270202 0.0012668911 0.0077924426   -162161.24 
   10950 0.00020226316 0.0012047154 0.0078584884   -162161.24 
   11000 0.00019246449 0.0011463528 0.0078139319   -162161.24 
   11050 0.00018198967 0.0010839629  0.007823458   -162161.24 
   11100 0.00017261957 0.0010281529 0.0078610639   -162161.24 
   11150 0.00016397717 0.00097667726 0.0078820602   -162161.24 
   11200 0.00015524895 0.00092469044 0.0078560204   -162161.24 
   11250 0.00014687839 0.00087483385 0.0078878876   -162161.23 
   11300 0.00013924611 0.00082937464 0.0078890758   -162161.23 
   11350 0.00013191409 0.00078570381 0.0079092529   -162161.23 
   11400 0.00012479868 0.00074332317 0.0079053807   -162161.23 
   11450 0.00011825148 0.00070432691 0.0079478785   -162161.23 
   11500 0.00011133179 0.00066311197 0.0079271505   -162161.23 
   11550 0.00010625711 0.00063288626 0.0079387406   -162161.23 
   11600 0.00010023112 0.00059699444 0.0079530166   -162161.22 
   11650 9.4334671e-05 0.00056187411 0.0079730528   -162161.22 
   11700 8.951727e-05 0.00053318081 0.0079421301   -162161.22 
   11750 8.5112944e-05 0.00050694786 0.0079780148   -162161.22 
   11800 7.9656139e-05 0.00047444616 0.0079537471   -162161.22 
   11850 7.5038119e-05 0.00044694041 0.0079815492   -162161.22 
   11900 7.250143e-05 0.00043183144 0.0080111498   -162161.22 
   11950 6.6937878e-05 0.00039869393 0.0080111522   -162161.22 
   12000 6.3575165e-05 0.00037866501 0.0079762005   -162161.22 
   12050 6.0535367e-05 0.00036055943 0.0080446204   -162161.22 
   12100 5.6735091e-05 0.00033792431 0.0080181081   -162161.21 
   12150 5.3682702e-05 0.00031974374 0.0080053444   -162161.21 
   12200 5.0363566e-05 0.00029997437  0.008006151   -162161.21 
   12250 4.7996325e-05 0.00028587467 0.0080262154   -162161.21 
   12300 4.4890411e-05 0.00026737529 0.0080173569   -162161.21 
   12350 4.2444723e-05 0.00025280834 0.0080634411   -162161.21 
   12400 3.9825128e-05 0.00023720556 0.0080441082   -162161.21 
   12450 3.7717063e-05 0.00022464955 0.0080501808   -162161.21 
   12500 3.5438362e-05 0.0002110772 0.0080249211   -162161.21 
   12550 3.3283492e-05 0.00019824241 0.0080485664   -162161.21 
   12600 3.1454113e-05 0.0001873463 0.0080562031   -162161.21 
   12650 2.9463987e-05 0.00017549276 0.0080553527   -162161.21 
   12700 2.7756913e-05 0.00016532512  0.008051742    -162161.2 
   12750 2.5978034e-05 0.0001547298 0.0080954817    -162161.2 
   12800 2.4459175e-05 0.00014568321 0.0080577521    -162161.2 
   12850 2.3046225e-05 0.00013726742 0.0080620006    -162161.2 
   12900 2.147736e-05 0.00012792298 0.0080764593    -162161.2 
   12950 2.0299945e-05 0.00012091009 0.0080760673    -162161.2 
   13000 1.8969996e-05 0.00011298868 0.0080804857    -162161.2 
   13050 1.7827129e-05 0.00010618155 0.0080934157    -162161.2 
   13100 1.6735962e-05 9.9682372e-05 0.0080663775    -162161.2 
   13150 1.5702943e-05 9.3529526e-05 0.0080910299    -162161.2 
   13200 1.4689224e-05 8.7491639e-05 0.0080977787    -162161.2 
   13250 1.3788253e-05 8.2125291e-05 0.0080855315    -162161.2 
   13300 1.3040444e-05 7.7671206e-05 0.0081022374    -162161.2 
   13350 1.1913592e-05 7.0959477e-05 0.0081035065    -162161.2 
   13400 1.1507693e-05 6.8541873e-05 0.0080920707    -162161.2 
   13450 1.0502572e-05 6.2555189e-05 0.0081137463    -162161.2 
   13500 9.9664402e-06 5.9361894e-05  0.008113354    -162161.2 
   13550 9.3411125e-06 5.5637331e-05 0.0080964152    -162161.2 
   13600 8.6612571e-06 5.1587991e-05 0.0081188874    -162161.2 
   13650 8.1159324e-06 4.833994e-05 0.0081150574    -162161.2 
   13700 7.6241043e-06 4.5410524e-05 0.0081057518    -162161.2 
   13750 7.0873522e-06 4.2213533e-05 0.0081225569    -162161.2 
   13800 6.5695673e-06 3.9129514e-05 0.0081339721   -162161.19 
   13850 6.2163028e-06 3.7025407e-05 0.0081079574   -162161.19 
   13900 5.7523975e-06 3.4262305e-05 0.0081280537   -162161.19 
   13950 5.3084591e-06 3.1618129e-05  0.008143415   -162161.19 
   14000 5.0283211e-06 2.9949577e-05 0.0081302213   -162161.19 
   14050 4.6462347e-06 2.7673802e-05 0.0081165007   -162161.19 
   14100 4.2821192e-06 2.5505065e-05 0.0081443315   -162161.19 
   14150 4.0308545e-06 2.4008488e-05  0.008141278   -162161.19 
   14200 3.7462541e-06 2.2313357e-05 0.0081361403   -162161.19 
   14250 3.4572924e-06 2.059225e-05 0.0081402816   -162161.19 
   14300 3.1928286e-06 1.9017056e-05 0.0081514778   -162161.19 
   14350 3.0157508e-06 1.7962349e-05 0.0081338603   -162161.19 
   14400 2.7343817e-06 1.6286465e-05 0.0081437867   -162161.19 
   14450 2.5901599e-06 1.5427454e-05 0.0081544732   -162161.19 
   14500 2.3429928e-06 1.3955283e-05 0.0081439199   -162161.19 
   14550 2.2609295e-06 1.3466499e-05 0.0081390671   -162161.19 
   14600 1.9951902e-06 1.1883709e-05 0.0081628571   -162161.19 
   14650 1.9122369e-06 1.1389624e-05 0.0081495602   -162161.19 
   14700 1.7592001e-06 1.0478109e-05 0.0081425664   -162161.19 
   14750 1.6095985e-06 9.5870558e-06  0.008158537   -162161.19 
   14800 1.5215212e-06 9.0624514e-06 0.0081536799   -162161.19 
   14850 1.3639217e-06 8.1237609e-06 0.0081471293   -162161.19 
   14900 1.3013316e-06 7.7509627e-06 0.0081618179   -162161.19 
   14950 1.1924102e-06 7.1022078e-06 0.0081529993   -162161.19 
   15000 1.0687163e-06 6.365465e-06 0.0081468339   -162161.19 
   15050 1.0171592e-06 6.0583813e-06 0.0081614441   -162161.19 
   15100 9.3578437e-07 5.5736985e-06 0.0081568223   -162161.19 
   15150 8.4041367e-07 5.0056536e-06 0.0081486849   -162161.19 
   15200 7.9485429e-07 4.7342938e-06 0.0081563077   -162161.19 
   15250 7.2374439e-07 4.3107505e-06 0.0081617814   -162161.19 
   15300 6.548935e-07 3.9006624e-06 0.0081563393   -162161.19 
   15350 6.1005175e-07 3.6335769e-06 0.0081565767   -162161.19 
   15400 5.6039999e-07 3.3378422e-06 0.0081618372   -162161.19 
   15450 4.9682545e-07 2.9591809e-06 0.0081627087   -162161.19 
   15500 4.7538841e-07 2.8314981e-06 0.0081548993   -162161.19 
   15550 4.128126e-07 2.4587854e-06 0.0081601438   -162161.19 
   15600 3.9099351e-07 2.328827e-06 0.0081636471   -162161.19 
   15650 3.4039211e-07 2.0274361e-06  0.008158163   -162161.19 
   15700 3.2930592e-07 1.9614048e-06 0.0081612707   -162161.19 
   15750 2.7878747e-07 1.6605079e-06 0.0081649296   -162161.19 
   15800 2.6543841e-07 1.5809985e-06  0.008158527   -162161.19 
   15850 2.4588966e-07 1.4645626e-06 0.0081622786   -162161.19 
   15900 2.0742018e-07 1.2354316e-06 0.0081649335   -162161.19 
   15950 2.0320483e-07 1.2103242e-06 0.0081586456   -162161.19 
   16000 1.7625159e-07 1.0497859e-06 0.0081634708   -162161.19 
   16050 1.6172766e-07 9.6327875e-07 0.0081666447   -162161.19 
   16100 1.4561471e-07 8.6730719e-07 0.0081615477   -162161.19 
   16150 1.3654262e-07 8.1327215e-07 0.0081638343   -162161.19 
   16200 1.209375e-07 7.2032533e-07 0.0081668088   -162161.19 
   16250 1.0397103e-07 6.1926999e-07 0.0081612743   -162161.19 
   16300 1.0251272e-07 6.1058403e-07 0.0081651101   -162161.19 
   16350 9.1835958e-08 5.4699134e-07  0.008166519   -162161.19 
   16400 7.6398897e-08 4.5504544e-07 0.0081630545   -162161.19 
   16450 7.4224889e-08 4.4209667e-07 0.0081661871   -162161.19 
   16500 6.8622601e-08 4.0872844e-07 0.0081681893   -162161.19 
   16550 5.7234609e-08 3.4089953e-07  0.008161988   -162161.19 
   16600 5.2593674e-08 3.1325729e-07 0.0081667876   -162161.19 
   16650 4.9084915e-08 2.923585e-07 0.0081691045   -162161.19 
   16700 3.9400523e-08 2.3467654e-07  0.008163764   -162161.19 
   16750 4.2166274e-08 2.5114984e-07 0.0081674753   -162161.19 
   16800 3.0228716e-08 1.8004762e-07 0.0081703883   -162161.19 
   16850 3.1792503e-08 1.8936181e-07 0.0081641021   -162161.19 
   16900 2.9165698e-08 1.737161e-07 0.0081668993   -162161.19 
   16950 2.0383777e-08 1.2140941e-07 0.0081707819   -162161.19 
   17000 2.3654002e-08 1.4088745e-07 0.0081650235   -162161.19 
   17050 1.9756969e-08 1.1767603e-07 0.0081660539   -162161.19 
   17100 1.6785554e-08 9.997775e-08 0.0081692285   -162161.19 
   17150 1.4269197e-08 8.4989881e-08 0.0081688316   -162161.19 
   17200 1.6662419e-08 9.9244338e-08  0.008167217   -162161.19 
   17250 1.1147773e-08 6.6398122e-08 0.0081683794   -162161.19 
   17300 1.1519604e-08 6.8612815e-08 0.0081683827   -162161.19 
   17350 1.2430204e-08 7.4036512e-08  0.008168562   -162161.19 
   17400 9.3403006e-09 5.5632495e-08 0.0081657312   -162161.19 
   17450 1.0435828e-08 6.2157652e-08 0.0081694762   -162161.19 
   17500 9.3990267e-09 5.5982278e-08 0.0081685075   -162161.19 
   17550 9.6255201e-09 5.7331313e-08 0.0081670442   -162161.19 
   17600 8.2333784e-09 4.9039469e-08 0.0081681973   -162161.19 
   17650 8.9766428e-09 5.3466484e-08 0.0081683969   -162161.19 
   17700 8.5558797e-09 5.0960344e-08 0.0081653538   -162161.19 
   17750 7.9916166e-09 4.7599493e-08 0.0081693251   -162161.19 
   17800 9.0498683e-09 5.3902628e-08 0.0081670626   -162161.19 
   17850 8.2077912e-09 4.8887067e-08 0.0081663311   -162161.19 
   17900 7.7345961e-09 4.6068633e-08 0.0081685304   -162161.19 
   17950 9.0572611e-09 5.3946661e-08 0.0081675107   -162161.19 
   18000 8.5295236e-09 5.0803363e-08 0.0081656541   -162161.19 
   18050 7.9145389e-09 4.7140404e-08 0.0081680392   -162161.19 
   18100 8.4712819e-09 5.0456465e-08 0.0081661935   -162161.19 
   18150 9.4771753e-09 5.6447745e-08 0.0081666532   -162161.19 
   18200 7.3828019e-09 4.3973284e-08 0.0081676343   -162161.19 
   18250 8.9563992e-09 5.334591e-08 0.0081656921   -162161.19 
   18300 8.5244801e-09 5.0773323e-08 0.0081661238   -162161.19 
   18350  8.40894e-09 5.0085145e-08 0.0081668688   -162161.19 
   18400 8.5625785e-09 5.1000244e-08 0.0081658721   -162161.19 
   18450 8.6619068e-09 5.1591861e-08 0.0081661204   -162161.19 
   18500 8.7166536e-09 5.1917942e-08 0.0081669548   -162161.19 
   18550 8.379423e-09 4.9909337e-08 0.0081663701   -162161.19 
   18600 9.1937569e-09 5.4759655e-08 0.0081670923   -162161.19 
   18650 8.1577399e-09 4.8588952e-08 0.0081655765   -162161.19 
   18700 9.2398802e-09 5.5034373e-08  0.008166567   -162161.19 
   18750 8.791628e-09 5.2364503e-08 0.0081663827   -162161.19 
   18800 8.7349733e-09 5.2027058e-08 0.0081654844   -162161.19 
   18850 9.1856085e-09 5.4711121e-08 0.0081655389   -162161.19 
   18900 8.8763817e-09 5.2869311e-08 0.0081670398   -162161.19 
   18950 8.8532814e-09 5.2731722e-08  0.008164696   -162161.19 
   19000 9.449612e-09 5.6283573e-08 0.0081664552   -162161.19 
   19050 8.6899313e-09 5.175878e-08 0.0081667176   -162161.19 
   19100 9.1609699e-09 5.4564369e-08 0.0081652894   -162161.19 
   19150 9.178699e-09 5.4669967e-08 0.0081653993   -162161.19 
   19200 8.8763151e-09 5.2868915e-08   0.00816708   -162161.19 
   19250 8.8280801e-09 5.2581618e-08 0.0081647621   -162161.19 
   19300 9.0823719e-09 5.4096226e-08 0.0081656672   -162161.19 
   19350 8.7607348e-09 5.2180498e-08  0.008166182   -162161.19 
   19400 8.7003357e-09 5.182075e-08 0.0081654581   -162161.19 
   19450 8.5972012e-09 5.1206463e-08 0.0081655175   -162161.19 
   19500 8.7793599e-09 5.2291432e-08 0.0081659445   -162161.19 
   19550 8.340987e-09 4.9680405e-08 0.0081645357   -162161.19 
   19600 8.1169535e-09 4.8346022e-08 0.0081654155   -162161.19 
   19650 8.6260408e-09 5.1378237e-08 0.0081657941   -162161.19 
   19700 7.8532969e-09 4.6775636e-08 0.0081651598   -162161.19 
   19750  8.03323e-09 4.784735e-08 0.0081653448   -162161.19 
   19800 7.8714043e-09 4.6883487e-08 0.0081651629   -162161.19 
   19850 7.6846628e-09 4.5771221e-08 0.0081648631   -162161.19 
   19900 7.5620875e-09 4.5041141e-08 0.0081650836   -162161.19 
   19950 7.4733053e-09 4.4512338e-08 0.0081650185   -162161.19 
   20000 7.2177243e-09 4.2990052e-08 0.0081649344   -162161.19 
Loop time of 4351.96 on 1 procs for 20000 steps with 46080 atoms

Pair  time (%) = 4171.76 (95.8592)
Neigh time (%) = 0 (0)
Comm  time (%) = 21.3882 (0.491462)
Outpt time (%) = 3.41219 (0.0784058)
Other time (%) = 155.404 (3.57091)

Nlocal:    46080 ave 46080 max 46080 min
Histogram: 1 0 0 0 0 0 0 0 0 0
Nghost:    23986 ave 23986 max 23986 min
Histogram: 1 0 0 0 0 0 0 0 0 0
Neighs:    5.48928e+06 ave 5.48928e+06 max 5.48928e+06 min
Histogram: 1 0 0 0 0 0 0 0 0 0

Total # of neighbors = 5489280
Ave neighs/atom = 119.125
Neighbor list builds = 0
Dangerous builds = 0
