
         896 atoms

4 atom types

0.0         8.9009600 xlo xhi
0.0         8.9009600 ylo yhi
      -4.4057505       14.318688 zlo zhi

Masses

1 1.000000
2 1.000000
3 1.000000
4 1.000000

Atoms
 
      1 2    0.000000    0.000000    0.000000    0    0    1    0.000000    0.000000    0.000000
      2 2    0.556310    0.556310    0.786741    0    0    0    0.556310    0.556310    0.786741
      3 3    0.000000    0.000000    1.573482 0 0 0 0.0 0.0 0.0
      4 3    0.556310    0.556310    2.360223 0 0 0 0.0 0.0 0.0
      5 3    0.000000    0.000000    3.146965 0 0 0 0.0 0.0 0.0
      6 3    0.556310    0.556310    3.933706 0 0 0 0.0 0.0 0.0
      7 3    0.000000    0.000000    4.720447 0 0 0 0.0 0.0 0.0
      8 3    0.556310    0.556310    5.507188 0 0 0 0.0 0.0 0.0
      9 3    0.000000    0.000000    6.293929 0 0 0 0.0 0.0 0.0
     10 3    0.556310    0.556310    7.080670 0 0 0 0.0 0.0 0.0
     11 3    0.000000    0.000000    7.867411 0 0 0 0.0 0.0 0.0
     12 3    0.556310    0.556310    8.654153 0 0 0 0.0 0.0 0.0
     13 3    0.000000    0.000000    9.440894 0 0 0 0.0 0.0 0.0
     14 3    0.556310    0.556310   10.227635 0 0 0 0.0 0.0 0.0
     15 2    0.000000    1.112620    0.000000    0    1    1    0.000000    1.112620    0.000000
     16 2    0.556310    1.668930    0.786741    0    1    0    0.556310    1.668930    0.786741
     17 3    0.000000    1.112620    1.573482 0 0 0 0.0 0.0 0.0
     18 3    0.556310    1.668930    2.360223 0 0 0 0.0 0.0 0.0
     19 3    0.000000    1.112620    3.146965 0 0 0 0.0 0.0 0.0
     20 3    0.556310    1.668930    3.933706 0 0 0 0.0 0.0 0.0
     21 3    0.000000    1.112620    4.720447 0 0 0 0.0 0.0 0.0
     22 3    0.556310    1.668930    5.507188 0 0 0 0.0 0.0 0.0
     23 3    0.000000    1.112620    6.293929 0 0 0 0.0 0.0 0.0
     24 3    0.556310    1.668930    7.080670 0 0 0 0.0 0.0 0.0
     25 3    0.000000    1.112620    7.867411 0 0 0 0.0 0.0 0.0
     26 3    0.556310    1.668930    8.654153 0 0 0 0.0 0.0 0.0
     27 3    0.000000    1.112620    9.440894 0 0 0 0.0 0.0 0.0
     28 3    0.556310    1.668930   10.227635 0 0 0 0.0 0.0 0.0
     29 2    0.000000    2.225240    0.000000    0    2    1    0.000000    2.225240    0.000000
     30 2    0.556310    2.781550    0.786741    0    2    0    0.556310    2.781550    0.786741
     31 3    0.000000    2.225240    1.573482 0 0 0 0.0 0.0 0.0
     32 3    0.556310    2.781550    2.360223 0 0 0 0.0 0.0 0.0
     33 3    0.000000    2.225240    3.146965 0 0 0 0.0 0.0 0.0
     34 3    0.556310    2.781550    3.933706 0 0 0 0.0 0.0 0.0
     35 3    0.000000    2.225240    4.720447 0 0 0 0.0 0.0 0.0
     36 3    0.556310    2.781550    5.507188 0 0 0 0.0 0.0 0.0
     37 3    0.000000    2.225240    6.293929 0 0 0 0.0 0.0 0.0
     38 3    0.556310    2.781550    7.080670 0 0 0 0.0 0.0 0.0
     39 3    0.000000    2.225240    7.867411 0 0 0 0.0 0.0 0.0
     40 3    0.556310    2.781550    8.654153 0 0 0 0.0 0.0 0.0
     41 3    0.000000    2.225240    9.440894 0 0 0 0.0 0.0 0.0
     42 3    0.556310    2.781550   10.227635 0 0 0 0.0 0.0 0.0
     43 2    0.000000    3.337860    0.000000    0    3    1    0.000000    3.337860    0.000000
     44 2    0.556310    3.894170    0.786741    0    3    0    0.556310    3.894170    0.786741
     45 3    0.000000    3.337860    1.573482 0 0 0 0.0 0.0 0.0
     46 3    0.556310    3.894170    2.360223 0 0 0 0.0 0.0 0.0
     47 3    0.000000    3.337860    3.146965 0 0 0 0.0 0.0 0.0
     48 3    0.556310    3.894170    3.933706 0 0 0 0.0 0.0 0.0
     49 3    0.000000    3.337860    4.720447 0 0 0 0.0 0.0 0.0
     50 3    0.556310    3.894170    5.507188 0 0 0 0.0 0.0 0.0
     51 3    0.000000    3.337860    6.293929 0 0 0 0.0 0.0 0.0
     52 3    0.556310    3.894170    7.080670 0 0 0 0.0 0.0 0.0
     53 3    0.000000    3.337860    7.867411 0 0 0 0.0 0.0 0.0
     54 3    0.556310    3.894170    8.654153 0 0 0 0.0 0.0 0.0
     55 3    0.000000    3.337860    9.440894 0 0 0 0.0 0.0 0.0
     56 3    0.556310    3.894170   10.227635 0 0 0 0.0 0.0 0.0
     57 2    0.000000    4.450480    0.000000    0    4    1    0.000000    4.450480    0.000000
     58 2    0.556310    5.006790    0.786741    0    4    0    0.556310    5.006790    0.786741
     59 3    0.000000    4.450480    1.573482 0 0 0 0.0 0.0 0.0
     60 3    0.556310    5.006790    2.360223 0 0 0 0.0 0.0 0.0
     61 3    0.000000    4.450480    3.146965 0 0 0 0.0 0.0 0.0
     62 3    0.556310    5.006790    3.933706 0 0 0 0.0 0.0 0.0
     63 3    0.000000    4.450480    4.720447 0 0 0 0.0 0.0 0.0
     64 3    0.556310    5.006790    5.507188 0 0 0 0.0 0.0 0.0
     65 3    0.000000    4.450480    6.293929 0 0 0 0.0 0.0 0.0
     66 3    0.556310    5.006790    7.080670 0 0 0 0.0 0.0 0.0
     67 3    0.000000    4.450480    7.867411 0 0 0 0.0 0.0 0.0
     68 3    0.556310    5.006790    8.654153 0 0 0 0.0 0.0 0.0
     69 3    0.000000    4.450480    9.440894 0 0 0 0.0 0.0 0.0
     70 3    0.556310    5.006790   10.227635 0 0 0 0.0 0.0 0.0
     71 2    0.000000    5.563100    0.000000    0    5    1    0.000000    5.563100    0.000000
     72 2    0.556310    6.119410    0.786741    0    5    0    0.556310    6.119410    0.786741
     73 3    0.000000    5.563100    1.573482 0 0 0 0.0 0.0 0.0
     74 3    0.556310    6.119410    2.360223 0 0 0 0.0 0.0 0.0
     75 3    0.000000    5.563100    3.146965 0 0 0 0.0 0.0 0.0
     76 3    0.556310    6.119410    3.933706 0 0 0 0.0 0.0 0.0
     77 3    0.000000    5.563100    4.720447 0 0 0 0.0 0.0 0.0
     78 3    0.556310    6.119410    5.507188 0 0 0 0.0 0.0 0.0
     79 3    0.000000    5.563100    6.293929 0 0 0 0.0 0.0 0.0
     80 3    0.556310    6.119410    7.080670 0 0 0 0.0 0.0 0.0
     81 3    0.000000    5.563100    7.867411 0 0 0 0.0 0.0 0.0
     82 3    0.556310    6.119410    8.654153 0 0 0 0.0 0.0 0.0
     83 3    0.000000    5.563100    9.440894 0 0 0 0.0 0.0 0.0
     84 3    0.556310    6.119410   10.227635 0 0 0 0.0 0.0 0.0
     85 2    0.000000    6.675720    0.000000    0    6    1    0.000000    6.675720    0.000000
     86 2    0.556310    7.232030    0.786741    0    6    0    0.556310    7.232030    0.786741
     87 3    0.000000    6.675720    1.573482 0 0 0 0.0 0.0 0.0
     88 3    0.556310    7.232030    2.360223 0 0 0 0.0 0.0 0.0
     89 3    0.000000    6.675720    3.146965 0 0 0 0.0 0.0 0.0
     90 3    0.556310    7.232030    3.933706 0 0 0 0.0 0.0 0.0
     91 3    0.000000    6.675720    4.720447 0 0 0 0.0 0.0 0.0
     92 3    0.556310    7.232030    5.507188 0 0 0 0.0 0.0 0.0
     93 3    0.000000    6.675720    6.293929 0 0 0 0.0 0.0 0.0
     94 3    0.556310    7.232030    7.080670 0 0 0 0.0 0.0 0.0
     95 3    0.000000    6.675720    7.867411 0 0 0 0.0 0.0 0.0
     96 3    0.556310    7.232030    8.654153 0 0 0 0.0 0.0 0.0
     97 3    0.000000    6.675720    9.440894 0 0 0 0.0 0.0 0.0
     98 3    0.556310    7.232030   10.227635 0 0 0 0.0 0.0 0.0
     99 2    0.000000    7.788340    0.000000    0    7    1    0.000000    7.788340    0.000000
    100 2    0.556310    8.344650    0.786741    0    7    0    0.556310    8.344650    0.786741
    101 3    0.000000    7.788340    1.573482 0 0 0 0.0 0.0 0.0
    102 3    0.556310    8.344650    2.360223 0 0 0 0.0 0.0 0.0
    103 3    0.000000    7.788340    3.146965 0 0 0 0.0 0.0 0.0
    104 3    0.556310    8.344650    3.933706 0 0 0 0.0 0.0 0.0
    105 3    0.000000    7.788340    4.720447 0 0 0 0.0 0.0 0.0
    106 3    0.556310    8.344650    5.507188 0 0 0 0.0 0.0 0.0
    107 3    0.000000    7.788340    6.293929 0 0 0 0.0 0.0 0.0
    108 3    0.556310    8.344650    7.080670 0 0 0 0.0 0.0 0.0
    109 3    0.000000    7.788340    7.867411 0 0 0 0.0 0.0 0.0
    110 3    0.556310    8.344650    8.654153 0 0 0 0.0 0.0 0.0
    111 3    0.000000    7.788340    9.440894 0 0 0 0.0 0.0 0.0
    112 3    0.556310    8.344650   10.227635 0 0 0 0.0 0.0 0.0
    113 2    1.112620    0.000000    0.000000    1    0    1    1.112620    0.000000    0.000000
    114 2    1.668930    0.556310    0.786741    1    0    0    1.668930    0.556310    0.786741
    115 3    1.112620    0.000000    1.573482 0 0 0 0.0 0.0 0.0
    116 3    1.668930    0.556310    2.360223 0 0 0 0.0 0.0 0.0
    117 3    1.112620    0.000000    3.146965 0 0 0 0.0 0.0 0.0
    118 3    1.668930    0.556310    3.933706 0 0 0 0.0 0.0 0.0
    119 3    1.112620    0.000000    4.720447 0 0 0 0.0 0.0 0.0
    120 3    1.668930    0.556310    5.507188 0 0 0 0.0 0.0 0.0
    121 3    1.112620    0.000000    6.293929 0 0 0 0.0 0.0 0.0
    122 3    1.668930    0.556310    7.080670 0 0 0 0.0 0.0 0.0
    123 3    1.112620    0.000000    7.867411 0 0 0 0.0 0.0 0.0
    124 3    1.668930    0.556310    8.654153 0 0 0 0.0 0.0 0.0
    125 3    1.112620    0.000000    9.440894 0 0 0 0.0 0.0 0.0
    126 3    1.668930    0.556310   10.227635 0 0 0 0.0 0.0 0.0
    127 2    1.112620    1.112620    0.000000    1    1    1    1.112620    1.112620    0.000000
    128 2    1.668930    1.668930    0.786741    1    1    0    1.668930    1.668930    0.786741
    129 3    1.112620    1.112620    1.573482 0 0 0 0.0 0.0 0.0
    130 3    1.668930    1.668930    2.360223 0 0 0 0.0 0.0 0.0
    131 3    1.112620    1.112620    3.146965 0 0 0 0.0 0.0 0.0
    132 3    1.668930    1.668930    3.933706 0 0 0 0.0 0.0 0.0
    133 3    1.112620    1.112620    4.720447 0 0 0 0.0 0.0 0.0
    134 3    1.668930    1.668930    5.507188 0 0 0 0.0 0.0 0.0
    135 3    1.112620    1.112620    6.293929 0 0 0 0.0 0.0 0.0
    136 3    1.668930    1.668930    7.080670 0 0 0 0.0 0.0 0.0
    137 3    1.112620    1.112620    7.867411 0 0 0 0.0 0.0 0.0
    138 3    1.668930    1.668930    8.654153 0 0 0 0.0 0.0 0.0
    139 3    1.112620    1.112620    9.440894 0 0 0 0.0 0.0 0.0
    140 3    1.668930    1.668930   10.227635 0 0 0 0.0 0.0 0.0
    141 2    1.112620    2.225240    0.000000    1    2    1    1.112620    2.225240    0.000000
    142 2    1.668930    2.781550    0.786741    1    2    0    1.668930    2.781550    0.786741
    143 3    1.112620    2.225240    1.573482 0 0 0 0.0 0.0 0.0
    144 3    1.668930    2.781550    2.360223 0 0 0 0.0 0.0 0.0
    145 3    1.112620    2.225240    3.146965 0 0 0 0.0 0.0 0.0
    146 3    1.668930    2.781550    3.933706 0 0 0 0.0 0.0 0.0
    147 3    1.112620    2.225240    4.720447 0 0 0 0.0 0.0 0.0
    148 3    1.668930    2.781550    5.507188 0 0 0 0.0 0.0 0.0
    149 3    1.112620    2.225240    6.293929 0 0 0 0.0 0.0 0.0
    150 3    1.668930    2.781550    7.080670 0 0 0 0.0 0.0 0.0
    151 3    1.112620    2.225240    7.867411 0 0 0 0.0 0.0 0.0
    152 3    1.668930    2.781550    8.654153 0 0 0 0.0 0.0 0.0
    153 3    1.112620    2.225240    9.440894 0 0 0 0.0 0.0 0.0
    154 3    1.668930    2.781550   10.227635 0 0 0 0.0 0.0 0.0
    155 2    1.112620    3.337860    0.000000    1    3    1    1.112620    3.337860    0.000000
    156 2    1.668930    3.894170    0.786741    1    3    0    1.668930    3.894170    0.786741
    157 3    1.112620    3.337860    1.573482 0 0 0 0.0 0.0 0.0
    158 3    1.668930    3.894170    2.360223 0 0 0 0.0 0.0 0.0
    159 3    1.112620    3.337860    3.146965 0 0 0 0.0 0.0 0.0
    160 3    1.668930    3.894170    3.933706 0 0 0 0.0 0.0 0.0
    161 3    1.112620    3.337860    4.720447 0 0 0 0.0 0.0 0.0
    162 3    1.668930    3.894170    5.507188 0 0 0 0.0 0.0 0.0
    163 3    1.112620    3.337860    6.293929 0 0 0 0.0 0.0 0.0
    164 3    1.668930    3.894170    7.080670 0 0 0 0.0 0.0 0.0
    165 3    1.112620    3.337860    7.867411 0 0 0 0.0 0.0 0.0
    166 3    1.668930    3.894170    8.654153 0 0 0 0.0 0.0 0.0
    167 3    1.112620    3.337860    9.440894 0 0 0 0.0 0.0 0.0
    168 3    1.668930    3.894170   10.227635 0 0 0 0.0 0.0 0.0
    169 2    1.112620    4.450480    0.000000    1    4    1    1.112620    4.450480    0.000000
    170 2    1.668930    5.006790    0.786741    1    4    0    1.668930    5.006790    0.786741
    171 3    1.112620    4.450480    1.573482 0 0 0 0.0 0.0 0.0
    172 3    1.668930    5.006790    2.360223 0 0 0 0.0 0.0 0.0
    173 3    1.112620    4.450480    3.146965 0 0 0 0.0 0.0 0.0
    174 3    1.668930    5.006790    3.933706 0 0 0 0.0 0.0 0.0
    175 3    1.112620    4.450480    4.720447 0 0 0 0.0 0.0 0.0
    176 3    1.668930    5.006790    5.507188 0 0 0 0.0 0.0 0.0
    177 3    1.112620    4.450480    6.293929 0 0 0 0.0 0.0 0.0
    178 3    1.668930    5.006790    7.080670 0 0 0 0.0 0.0 0.0
    179 3    1.112620    4.450480    7.867411 0 0 0 0.0 0.0 0.0
    180 3    1.668930    5.006790    8.654153 0 0 0 0.0 0.0 0.0
    181 3    1.112620    4.450480    9.440894 0 0 0 0.0 0.0 0.0
    182 3    1.668930    5.006790   10.227635 0 0 0 0.0 0.0 0.0
    183 2    1.112620    5.563100    0.000000    1    5    1    1.112620    5.563100    0.000000
    184 2    1.668930    6.119410    0.786741    1    5    0    1.668930    6.119410    0.786741
    185 3    1.112620    5.563100    1.573482 0 0 0 0.0 0.0 0.0
    186 3    1.668930    6.119410    2.360223 0 0 0 0.0 0.0 0.0
    187 3    1.112620    5.563100    3.146965 0 0 0 0.0 0.0 0.0
    188 3    1.668930    6.119410    3.933706 0 0 0 0.0 0.0 0.0
    189 3    1.112620    5.563100    4.720447 0 0 0 0.0 0.0 0.0
    190 3    1.668930    6.119410    5.507188 0 0 0 0.0 0.0 0.0
    191 3    1.112620    5.563100    6.293929 0 0 0 0.0 0.0 0.0
    192 3    1.668930    6.119410    7.080670 0 0 0 0.0 0.0 0.0
    193 3    1.112620    5.563100    7.867411 0 0 0 0.0 0.0 0.0
    194 3    1.668930    6.119410    8.654153 0 0 0 0.0 0.0 0.0
    195 3    1.112620    5.563100    9.440894 0 0 0 0.0 0.0 0.0
    196 3    1.668930    6.119410   10.227635 0 0 0 0.0 0.0 0.0
    197 2    1.112620    6.675720    0.000000    1    6    1    1.112620    6.675720    0.000000
    198 2    1.668930    7.232030    0.786741    1    6    0    1.668930    7.232030    0.786741
    199 3    1.112620    6.675720    1.573482 0 0 0 0.0 0.0 0.0
    200 3    1.668930    7.232030    2.360223 0 0 0 0.0 0.0 0.0
    201 3    1.112620    6.675720    3.146965 0 0 0 0.0 0.0 0.0
    202 3    1.668930    7.232030    3.933706 0 0 0 0.0 0.0 0.0
    203 3    1.112620    6.675720    4.720447 0 0 0 0.0 0.0 0.0
    204 3    1.668930    7.232030    5.507188 0 0 0 0.0 0.0 0.0
    205 3    1.112620    6.675720    6.293929 0 0 0 0.0 0.0 0.0
    206 3    1.668930    7.232030    7.080670 0 0 0 0.0 0.0 0.0
    207 3    1.112620    6.675720    7.867411 0 0 0 0.0 0.0 0.0
    208 3    1.668930    7.232030    8.654153 0 0 0 0.0 0.0 0.0
    209 3    1.112620    6.675720    9.440894 0 0 0 0.0 0.0 0.0
    210 3    1.668930    7.232030   10.227635 0 0 0 0.0 0.0 0.0
    211 2    1.112620    7.788340    0.000000    1    7    1    1.112620    7.788340    0.000000
    212 2    1.668930    8.344650    0.786741    1    7    0    1.668930    8.344650    0.786741
    213 3    1.112620    7.788340    1.573482 0 0 0 0.0 0.0 0.0
    214 3    1.668930    8.344650    2.360223 0 0 0 0.0 0.0 0.0
    215 3    1.112620    7.788340    3.146965 0 0 0 0.0 0.0 0.0
    216 3    1.668930    8.344650    3.933706 0 0 0 0.0 0.0 0.0
    217 3    1.112620    7.788340    4.720447 0 0 0 0.0 0.0 0.0
    218 3    1.668930    8.344650    5.507188 0 0 0 0.0 0.0 0.0
    219 3    1.112620    7.788340    6.293929 0 0 0 0.0 0.0 0.0
    220 3    1.668930    8.344650    7.080670 0 0 0 0.0 0.0 0.0
    221 3    1.112620    7.788340    7.867411 0 0 0 0.0 0.0 0.0
    222 3    1.668930    8.344650    8.654153 0 0 0 0.0 0.0 0.0
    223 3    1.112620    7.788340    9.440894 0 0 0 0.0 0.0 0.0
    224 3    1.668930    8.344650   10.227635 0 0 0 0.0 0.0 0.0
    225 2    2.225240    0.000000    0.000000    2    0    1    2.225240    0.000000    0.000000
    226 2    2.781550    0.556310    0.786741    2    0    0    2.781550    0.556310    0.786741
    227 3    2.225240    0.000000    1.573482 0 0 0 0.0 0.0 0.0
    228 3    2.781550    0.556310    2.360223 0 0 0 0.0 0.0 0.0
    229 3    2.225240    0.000000    3.146965 0 0 0 0.0 0.0 0.0
    230 3    2.781550    0.556310    3.933706 0 0 0 0.0 0.0 0.0
    231 3    2.225240    0.000000    4.720447 0 0 0 0.0 0.0 0.0
    232 3    2.781550    0.556310    5.507188 0 0 0 0.0 0.0 0.0
    233 3    2.225240    0.000000    6.293929 0 0 0 0.0 0.0 0.0
    234 3    2.781550    0.556310    7.080670 0 0 0 0.0 0.0 0.0
    235 3    2.225240    0.000000    7.867411 0 0 0 0.0 0.0 0.0
    236 3    2.781550    0.556310    8.654153 0 0 0 0.0 0.0 0.0
    237 3    2.225240    0.000000    9.440894 0 0 0 0.0 0.0 0.0
    238 3    2.781550    0.556310   10.227635 0 0 0 0.0 0.0 0.0
    239 2    2.225240    1.112620    0.000000    2    1    1    2.225240    1.112620    0.000000
    240 2    2.781550    1.668930    0.786741    2    1    0    2.781550    1.668930    0.786741
    241 3    2.225240    1.112620    1.573482 0 0 0 0.0 0.0 0.0
    242 3    2.781550    1.668930    2.360223 0 0 0 0.0 0.0 0.0
    243 3    2.225240    1.112620    3.146965 0 0 0 0.0 0.0 0.0
    244 3    2.781550    1.668930    3.933706 0 0 0 0.0 0.0 0.0
    245 3    2.225240    1.112620    4.720447 0 0 0 0.0 0.0 0.0
    246 3    2.781550    1.668930    5.507188 0 0 0 0.0 0.0 0.0
    247 3    2.225240    1.112620    6.293929 0 0 0 0.0 0.0 0.0
    248 3    2.781550    1.668930    7.080670 0 0 0 0.0 0.0 0.0
    249 3    2.225240    1.112620    7.867411 0 0 0 0.0 0.0 0.0
    250 3    2.781550    1.668930    8.654153 0 0 0 0.0 0.0 0.0
    251 3    2.225240    1.112620    9.440894 0 0 0 0.0 0.0 0.0
    252 3    2.781550    1.668930   10.227635 0 0 0 0.0 0.0 0.0
    253 2    2.225240    2.225240    0.000000    2    2    1    2.225240    2.225240    0.000000
    254 2    2.781550    2.781550    0.786741    2    2    0    2.781550    2.781550    0.786741
    255 3    2.225240    2.225240    1.573482 0 0 0 0.0 0.0 0.0
    256 3    2.781550    2.781550    2.360223 0 0 0 0.0 0.0 0.0
    257 3    2.225240    2.225240    3.146965 0 0 0 0.0 0.0 0.0
    258 3    2.781550    2.781550    3.933706 0 0 0 0.0 0.0 0.0
    259 3    2.225240    2.225240    4.720447 0 0 0 0.0 0.0 0.0
    260 3    2.781550    2.781550    5.507188 0 0 0 0.0 0.0 0.0
    261 3    2.225240    2.225240    6.293929 0 0 0 0.0 0.0 0.0
    262 3    2.781550    2.781550    7.080670 0 0 0 0.0 0.0 0.0
    263 3    2.225240    2.225240    7.867411 0 0 0 0.0 0.0 0.0
    264 3    2.781550    2.781550    8.654153 0 0 0 0.0 0.0 0.0
    265 3    2.225240    2.225240    9.440894 0 0 0 0.0 0.0 0.0
    266 3    2.781550    2.781550   10.227635 0 0 0 0.0 0.0 0.0
    267 2    2.225240    3.337860    0.000000    2    3    1    2.225240    3.337860    0.000000
    268 2    2.781550    3.894170    0.786741    2    3    0    2.781550    3.894170    0.786741
    269 3    2.225240    3.337860    1.573482 0 0 0 0.0 0.0 0.0
    270 3    2.781550    3.894170    2.360223 0 0 0 0.0 0.0 0.0
    271 3    2.225240    3.337860    3.146965 0 0 0 0.0 0.0 0.0
    272 3    2.781550    3.894170    3.933706 0 0 0 0.0 0.0 0.0
    273 3    2.225240    3.337860    4.720447 0 0 0 0.0 0.0 0.0
    274 3    2.781550    3.894170    5.507188 0 0 0 0.0 0.0 0.0
    275 3    2.225240    3.337860    6.293929 0 0 0 0.0 0.0 0.0
    276 3    2.781550    3.894170    7.080670 0 0 0 0.0 0.0 0.0
    277 3    2.225240    3.337860    7.867411 0 0 0 0.0 0.0 0.0
    278 3    2.781550    3.894170    8.654153 0 0 0 0.0 0.0 0.0
    279 3    2.225240    3.337860    9.440894 0 0 0 0.0 0.0 0.0
    280 3    2.781550    3.894170   10.227635 0 0 0 0.0 0.0 0.0
    281 2    2.225240    4.450480    0.000000    2    4    1    2.225240    4.450480    0.000000
    282 2    2.781550    5.006790    0.786741    2    4    0    2.781550    5.006790    0.786741
    283 3    2.225240    4.450480    1.573482 0 0 0 0.0 0.0 0.0
    284 3    2.781550    5.006790    2.360223 0 0 0 0.0 0.0 0.0
    285 3    2.225240    4.450480    3.146965 0 0 0 0.0 0.0 0.0
    286 3    2.781550    5.006790    3.933706 0 0 0 0.0 0.0 0.0
    287 3    2.225240    4.450480    4.720447 0 0 0 0.0 0.0 0.0
    288 3    2.781550    5.006790    5.507188 0 0 0 0.0 0.0 0.0
    289 3    2.225240    4.450480    6.293929 0 0 0 0.0 0.0 0.0
    290 3    2.781550    5.006790    7.080670 0 0 0 0.0 0.0 0.0
    291 3    2.225240    4.450480    7.867411 0 0 0 0.0 0.0 0.0
    292 3    2.781550    5.006790    8.654153 0 0 0 0.0 0.0 0.0
    293 3    2.225240    4.450480    9.440894 0 0 0 0.0 0.0 0.0
    294 3    2.781550    5.006790   10.227635 0 0 0 0.0 0.0 0.0
    295 2    2.225240    5.563100    0.000000    2    5    1    2.225240    5.563100    0.000000
    296 2    2.781550    6.119410    0.786741    2    5    0    2.781550    6.119410    0.786741
    297 3    2.225240    5.563100    1.573482 0 0 0 0.0 0.0 0.0
    298 3    2.781550    6.119410    2.360223 0 0 0 0.0 0.0 0.0
    299 3    2.225240    5.563100    3.146965 0 0 0 0.0 0.0 0.0
    300 3    2.781550    6.119410    3.933706 0 0 0 0.0 0.0 0.0
    301 3    2.225240    5.563100    4.720447 0 0 0 0.0 0.0 0.0
    302 3    2.781550    6.119410    5.507188 0 0 0 0.0 0.0 0.0
    303 3    2.225240    5.563100    6.293929 0 0 0 0.0 0.0 0.0
    304 3    2.781550    6.119410    7.080670 0 0 0 0.0 0.0 0.0
    305 3    2.225240    5.563100    7.867411 0 0 0 0.0 0.0 0.0
    306 3    2.781550    6.119410    8.654153 0 0 0 0.0 0.0 0.0
    307 3    2.225240    5.563100    9.440894 0 0 0 0.0 0.0 0.0
    308 3    2.781550    6.119410   10.227635 0 0 0 0.0 0.0 0.0
    309 2    2.225240    6.675720    0.000000    2    6    1    2.225240    6.675720    0.000000
    310 2    2.781550    7.232030    0.786741    2    6    0    2.781550    7.232030    0.786741
    311 3    2.225240    6.675720    1.573482 0 0 0 0.0 0.0 0.0
    312 3    2.781550    7.232030    2.360223 0 0 0 0.0 0.0 0.0
    313 3    2.225240    6.675720    3.146965 0 0 0 0.0 0.0 0.0
    314 3    2.781550    7.232030    3.933706 0 0 0 0.0 0.0 0.0
    315 3    2.225240    6.675720    4.720447 0 0 0 0.0 0.0 0.0
    316 3    2.781550    7.232030    5.507188 0 0 0 0.0 0.0 0.0
    317 3    2.225240    6.675720    6.293929 0 0 0 0.0 0.0 0.0
    318 3    2.781550    7.232030    7.080670 0 0 0 0.0 0.0 0.0
    319 3    2.225240    6.675720    7.867411 0 0 0 0.0 0.0 0.0
    320 3    2.781550    7.232030    8.654153 0 0 0 0.0 0.0 0.0
    321 3    2.225240    6.675720    9.440894 0 0 0 0.0 0.0 0.0
    322 3    2.781550    7.232030   10.227635 0 0 0 0.0 0.0 0.0
    323 2    2.225240    7.788340    0.000000    2    7    1    2.225240    7.788340    0.000000
    324 2    2.781550    8.344650    0.786741    2    7    0    2.781550    8.344650    0.786741
    325 3    2.225240    7.788340    1.573482 0 0 0 0.0 0.0 0.0
    326 3    2.781550    8.344650    2.360223 0 0 0 0.0 0.0 0.0
    327 3    2.225240    7.788340    3.146965 0 0 0 0.0 0.0 0.0
    328 3    2.781550    8.344650    3.933706 0 0 0 0.0 0.0 0.0
    329 3    2.225240    7.788340    4.720447 0 0 0 0.0 0.0 0.0
    330 3    2.781550    8.344650    5.507188 0 0 0 0.0 0.0 0.0
    331 3    2.225240    7.788340    6.293929 0 0 0 0.0 0.0 0.0
    332 3    2.781550    8.344650    7.080670 0 0 0 0.0 0.0 0.0
    333 3    2.225240    7.788340    7.867411 0 0 0 0.0 0.0 0.0
    334 3    2.781550    8.344650    8.654153 0 0 0 0.0 0.0 0.0
    335 3    2.225240    7.788340    9.440894 0 0 0 0.0 0.0 0.0
    336 3    2.781550    8.344650   10.227635 0 0 0 0.0 0.0 0.0
    337 2    3.337860    0.000000    0.000000    3    0    1    3.337860    0.000000    0.000000
    338 2    3.894170    0.556310    0.786741    3    0    0    3.894170    0.556310    0.786741
    339 3    3.337860    0.000000    1.573482 0 0 0 0.0 0.0 0.0
    340 3    3.894170    0.556310    2.360223 0 0 0 0.0 0.0 0.0
    341 3    3.337860    0.000000    3.146965 0 0 0 0.0 0.0 0.0
    342 3    3.894170    0.556310    3.933706 0 0 0 0.0 0.0 0.0
    343 3    3.337860    0.000000    4.720447 0 0 0 0.0 0.0 0.0
    344 3    3.894170    0.556310    5.507188 0 0 0 0.0 0.0 0.0
    345 3    3.337860    0.000000    6.293929 0 0 0 0.0 0.0 0.0
    346 3    3.894170    0.556310    7.080670 0 0 0 0.0 0.0 0.0
    347 3    3.337860    0.000000    7.867411 0 0 0 0.0 0.0 0.0
    348 3    3.894170    0.556310    8.654153 0 0 0 0.0 0.0 0.0
    349 3    3.337860    0.000000    9.440894 0 0 0 0.0 0.0 0.0
    350 3    3.894170    0.556310   10.227635 0 0 0 0.0 0.0 0.0
    351 2    3.337860    1.112620    0.000000    3    1    1    3.337860    1.112620    0.000000
    352 2    3.894170    1.668930    0.786741    3    1    0    3.894170    1.668930    0.786741
    353 3    3.337860    1.112620    1.573482 0 0 0 0.0 0.0 0.0
    354 3    3.894170    1.668930    2.360223 0 0 0 0.0 0.0 0.0
    355 3    3.337860    1.112620    3.146965 0 0 0 0.0 0.0 0.0
    356 3    3.894170    1.668930    3.933706 0 0 0 0.0 0.0 0.0
    357 3    3.337860    1.112620    4.720447 0 0 0 0.0 0.0 0.0
    358 3    3.894170    1.668930    5.507188 0 0 0 0.0 0.0 0.0
    359 3    3.337860    1.112620    6.293929 0 0 0 0.0 0.0 0.0
    360 3    3.894170    1.668930    7.080670 0 0 0 0.0 0.0 0.0
    361 3    3.337860    1.112620    7.867411 0 0 0 0.0 0.0 0.0
    362 3    3.894170    1.668930    8.654153 0 0 0 0.0 0.0 0.0
    363 3    3.337860    1.112620    9.440894 0 0 0 0.0 0.0 0.0
    364 3    3.894170    1.668930   10.227635 0 0 0 0.0 0.0 0.0
    365 2    3.337860    2.225240    0.000000    3    2    1    3.337860    2.225240    0.000000
    366 2    3.894170    2.781550    0.786741    3    2    0    3.894170    2.781550    0.786741
    367 3    3.337860    2.225240    1.573482 0 0 0 0.0 0.0 0.0
    368 3    3.894170    2.781550    2.360223 0 0 0 0.0 0.0 0.0
    369 3    3.337860    2.225240    3.146965 0 0 0 0.0 0.0 0.0
    370 3    3.894170    2.781550    3.933706 0 0 0 0.0 0.0 0.0
    371 3    3.337860    2.225240    4.720447 0 0 0 0.0 0.0 0.0
    372 3    3.894170    2.781550    5.507188 0 0 0 0.0 0.0 0.0
    373 3    3.337860    2.225240    6.293929 0 0 0 0.0 0.0 0.0
    374 3    3.894170    2.781550    7.080670 0 0 0 0.0 0.0 0.0
    375 3    3.337860    2.225240    7.867411 0 0 0 0.0 0.0 0.0
    376 3    3.894170    2.781550    8.654153 0 0 0 0.0 0.0 0.0
    377 3    3.337860    2.225240    9.440894 0 0 0 0.0 0.0 0.0
    378 3    3.894170    2.781550   10.227635 0 0 0 0.0 0.0 0.0
    379 2    3.337860    3.337860    0.000000    3    3    1    3.337860    3.337860    0.000000
    380 2    3.894170    3.894170    0.786741    3    3    0    3.894170    3.894170    0.786741
    381 3    3.337860    3.337860    1.573482 0 0 0 0.0 0.0 0.0
    382 3    3.894170    3.894170    2.360223 0 0 0 0.0 0.0 0.0
    383 3    3.337860    3.337860    3.146965 0 0 0 0.0 0.0 0.0
    384 3    3.894170    3.894170    3.933706 0 0 0 0.0 0.0 0.0
    385 3    3.337860    3.337860    4.720447 0 0 0 0.0 0.0 0.0
    386 3    3.894170    3.894170    5.507188 0 0 0 0.0 0.0 0.0
    387 3    3.337860    3.337860    6.293929 0 0 0 0.0 0.0 0.0
    388 3    3.894170    3.894170    7.080670 0 0 0 0.0 0.0 0.0
    389 3    3.337860    3.337860    7.867411 0 0 0 0.0 0.0 0.0
    390 3    3.894170    3.894170    8.654153 0 0 0 0.0 0.0 0.0
    391 3    3.337860    3.337860    9.440894 0 0 0 0.0 0.0 0.0
    392 3    3.894170    3.894170   10.227635 0 0 0 0.0 0.0 0.0
    393 2    3.337860    4.450480    0.000000    3    4    1    3.337860    4.450480    0.000000
    394 2    3.894170    5.006790    0.786741    3    4    0    3.894170    5.006790    0.786741
    395 3    3.337860    4.450480    1.573482 0 0 0 0.0 0.0 0.0
    396 3    3.894170    5.006790    2.360223 0 0 0 0.0 0.0 0.0
    397 3    3.337860    4.450480    3.146965 0 0 0 0.0 0.0 0.0
    398 3    3.894170    5.006790    3.933706 0 0 0 0.0 0.0 0.0
    399 3    3.337860    4.450480    4.720447 0 0 0 0.0 0.0 0.0
    400 3    3.894170    5.006790    5.507188 0 0 0 0.0 0.0 0.0
    401 3    3.337860    4.450480    6.293929 0 0 0 0.0 0.0 0.0
    402 3    3.894170    5.006790    7.080670 0 0 0 0.0 0.0 0.0
    403 3    3.337860    4.450480    7.867411 0 0 0 0.0 0.0 0.0
    404 3    3.894170    5.006790    8.654153 0 0 0 0.0 0.0 0.0
    405 3    3.337860    4.450480    9.440894 0 0 0 0.0 0.0 0.0
    406 3    3.894170    5.006790   10.227635 0 0 0 0.0 0.0 0.0
    407 2    3.337860    5.563100    0.000000    3    5    1    3.337860    5.563100    0.000000
    408 2    3.894170    6.119410    0.786741    3    5    0    3.894170    6.119410    0.786741
    409 3    3.337860    5.563100    1.573482 0 0 0 0.0 0.0 0.0
    410 3    3.894170    6.119410    2.360223 0 0 0 0.0 0.0 0.0
    411 3    3.337860    5.563100    3.146965 0 0 0 0.0 0.0 0.0
    412 3    3.894170    6.119410    3.933706 0 0 0 0.0 0.0 0.0
    413 3    3.337860    5.563100    4.720447 0 0 0 0.0 0.0 0.0
    414 3    3.894170    6.119410    5.507188 0 0 0 0.0 0.0 0.0
    415 3    3.337860    5.563100    6.293929 0 0 0 0.0 0.0 0.0
    416 3    3.894170    6.119410    7.080670 0 0 0 0.0 0.0 0.0
    417 3    3.337860    5.563100    7.867411 0 0 0 0.0 0.0 0.0
    418 3    3.894170    6.119410    8.654153 0 0 0 0.0 0.0 0.0
    419 3    3.337860    5.563100    9.440894 0 0 0 0.0 0.0 0.0
    420 3    3.894170    6.119410   10.227635 0 0 0 0.0 0.0 0.0
    421 2    3.337860    6.675720    0.000000    3    6    1    3.337860    6.675720    0.000000
    422 2    3.894170    7.232030    0.786741    3    6    0    3.894170    7.232030    0.786741
    423 3    3.337860    6.675720    1.573482 0 0 0 0.0 0.0 0.0
    424 3    3.894170    7.232030    2.360223 0 0 0 0.0 0.0 0.0
    425 3    3.337860    6.675720    3.146965 0 0 0 0.0 0.0 0.0
    426 3    3.894170    7.232030    3.933706 0 0 0 0.0 0.0 0.0
    427 3    3.337860    6.675720    4.720447 0 0 0 0.0 0.0 0.0
    428 3    3.894170    7.232030    5.507188 0 0 0 0.0 0.0 0.0
    429 3    3.337860    6.675720    6.293929 0 0 0 0.0 0.0 0.0
    430 3    3.894170    7.232030    7.080670 0 0 0 0.0 0.0 0.0
    431 3    3.337860    6.675720    7.867411 0 0 0 0.0 0.0 0.0
    432 3    3.894170    7.232030    8.654153 0 0 0 0.0 0.0 0.0
    433 3    3.337860    6.675720    9.440894 0 0 0 0.0 0.0 0.0