64x37x1 FCC(111) orthogonal, long side along y

      4736  atoms

         3  atom types

     0.00000000     71.24544001 xlo xhi
   -10.00000000     80.00000000 ylo yhi
    -0.00010000      0.00010000 zlo zhi

Atoms

   1  3      0.00000000      0.00000000      0.00000000
   2  3      1.11321000      0.00000000      0.00000000
   3  3      2.22642000      0.00000000      0.00000000
   4  3      3.33963000      0.00000000      0.00000000
   5  3      4.45284000      0.00000000      0.00000000
   6  3      5.56605000      0.00000000      0.00000000
   7  3      6.67926000      0.00000000      0.00000000
   8  3      7.79247000      0.00000000      0.00000000
   9  3      8.90568000      0.00000000      0.00000000
  10  3     10.01889000      0.00000000      0.00000000
  11  3     11.13210000      0.00000000      0.00000000
  12  3     12.24531000      0.00000000      0.00000000
  13  3     13.35852000      0.00000000      0.00000000
  14  3     14.47173000      0.00000000      0.00000000
  15  3     15.58494000      0.00000000      0.00000000
  16  3     16.69815000      0.00000000      0.00000000
  17  3     17.81136000      0.00000000      0.00000000
  18  3     18.92457000      0.00000000      0.00000000
  19  3     20.03778000      0.00000000      0.00000000
  20  3     21.15099000      0.00000000      0.00000000
  21  3     22.26420000      0.00000000      0.00000000
  22  3     23.37741000      0.00000000      0.00000000
  23  3     24.49062000      0.00000000      0.00000000
  24  3     25.60383000      0.00000000      0.00000000
  25  3     26.71704000      0.00000000      0.00000000
  26  3     27.83025000      0.00000000      0.00000000
  27  3     28.94346000      0.00000000      0.00000000
  28  3     30.05667000      0.00000000      0.00000000
  29  3     31.16988000      0.00000000      0.00000000
  30  3     32.28309000      0.00000000      0.00000000
  31  3     33.39630000      0.00000000      0.00000000
  32  3     34.50951001      0.00000000      0.00000000
  33  3     35.62272001      0.00000000      0.00000000
  34  3     36.73593001      0.00000000      0.00000000
  35  3     37.84914001      0.00000000      0.00000000
  36  3     38.96235001      0.00000000      0.00000000
  37  3     40.07556001      0.00000000      0.00000000
  38  3     41.18877001      0.00000000      0.00000000
  39  3     42.30198001      0.00000000      0.00000000
  40  3     43.41519001      0.00000000      0.00000000
  41  3     44.52840001      0.00000000      0.00000000
  42  3     45.64161001      0.00000000      0.00000000
  43  3     46.75482001      0.00000000      0.00000000
  44  3     47.86803001      0.00000000      0.00000000
  45  3     48.98124001      0.00000000      0.00000000
  46  3     50.09445001      0.00000000      0.00000000
  47  3     51.20766001      0.00000000      0.00000000
  48  3     52.32087001      0.00000000      0.00000000
  49  3     53.43408001      0.00000000      0.00000000
  50  3     54.54729001      0.00000000      0.00000000
  51  3     55.66050001      0.00000000      0.00000000
  52  3     56.77371001      0.00000000      0.00000000
  53  3     57.88692001      0.00000000      0.00000000
  54  3     59.00013001      0.00000000      0.00000000
  55  3     60.11334001      0.00000000      0.00000000
  56  3     61.22655001      0.00000000      0.00000000
  57  3     62.33976001      0.00000000      0.00000000
  58  3     63.45297001      0.00000000      0.00000000
  59  3     64.56618001      0.00000000      0.00000000
  60  3     65.67939001      0.00000000      0.00000000
  61  3     66.79260001      0.00000000      0.00000000
  62  3     67.90581001      0.00000000      0.00000000
  63  3     69.01902001      0.00000000      0.00000000
  64  3     70.13223001      0.00000000      0.00000000
  65  2      0.00000000      1.92813628      0.00000000
  66  2      1.11321000      1.92813628      0.00000000
  67  2      2.22642000      1.92813628      0.00000000
  68  2      3.33963000      1.92813628      0.00000000
  69  2      4.45284000      1.92813628      0.00000000
  70  2      5.56605000      1.92813628      0.00000000
  71  2      6.67926000      1.92813628      0.00000000
  72  2      7.79247000      1.92813628      0.00000000
  73  2      8.90568000      1.92813628      0.00000000
  74  2     10.01889000      1.92813628      0.00000000
  75  2     11.13210000      1.92813628      0.00000000
  76  2     12.24531000      1.92813628      0.00000000
  77  2     13.35852000      1.92813628      0.00000000
  78  2     14.47173000      1.92813628      0.00000000
  79  2     15.58494000      1.92813628      0.00000000
  80  2     16.69815000      1.92813628      0.00000000
  81  2     17.81136000      1.92813628      0.00000000
  82  2     18.92457000      1.92813628      0.00000000
  83  2     20.03778000      1.92813628      0.00000000
  84  2     21.15099000      1.92813628      0.00000000
  85  2     22.26420000      1.92813628      0.00000000
  86  2     23.37741000      1.92813628      0.00000000
  87  2     24.49062000      1.92813628      0.00000000
  88  2     25.60383000      1.92813628      0.00000000
  89  2     26.71704000      1.92813628      0.00000000
  90  2     27.83025000      1.92813628      0.00000000
  91  2     28.94346000      1.92813628      0.00000000
  92  2     30.05667000      1.92813628      0.00000000
  93  2     31.16988000      1.92813628      0.00000000
  94  2     32.28309000      1.92813628      0.00000000
  95  2     33.39630000      1.92813628      0.00000000
  96  2     34.50951001      1.92813628      0.00000000
  97  2     35.62272001      1.92813628      0.00000000
  98  2     36.73593001      1.92813628      0.00000000
  99  2     37.84914001      1.92813628      0.00000000
 100  2     38.96235001      1.92813628      0.00000000
 101  2     40.07556001      1.92813628      0.00000000
 102  2     41.18877001      1.92813628      0.00000000
 103  2     42.30198001      1.92813628      0.00000000
 104  2     43.41519001      1.92813628      0.00000000
 105  2     44.52840001      1.92813628      0.00000000
 106  2     45.64161001      1.92813628      0.00000000
 107  2     46.75482001      1.92813628      0.00000000
 108  2     47.86803001      1.92813628      0.00000000
 109  2     48.98124001      1.92813628      0.00000000
 110  2     50.09445001      1.92813628      0.00000000
 111  2     51.20766001      1.92813628      0.00000000
 112  2     52.32087001      1.92813628      0.00000000
 113  2     53.43408001      1.92813628      0.00000000
 114  2     54.54729001      1.92813628      0.00000000
 115  2     55.66050001      1.92813628      0.00000000
 116  2     56.77371001      1.92813628      0.00000000
 117  2     57.88692001      1.92813628      0.00000000
 118  2     59.00013001      1.92813628      0.00000000
 119  2     60.11334001      1.92813628      0.00000000
 120  2     61.22655001      1.92813628      0.00000000
 121  2     62.33976001      1.92813628      0.00000000
 122  2     63.45297001      1.92813628      0.00000000
 123  2     64.56618001      1.92813628      0.00000000
 124  2     65.67939001      1.92813628      0.00000000
 125  2     66.79260001      1.92813628      0.00000000
 126  2     67.90581001      1.92813628      0.00000000
 127  2     69.01902001      1.92813628      0.00000000
 128  2     70.13223001      1.92813628      0.00000000
 129  2      0.00000000      3.85627256      0.00000000
 130  2      1.11321000      3.85627256      0.00000000
 131  2      2.22642000      3.85627256      0.00000000
 132  2      3.33963000      3.85627256      0.00000000
 133  2      4.45284000      3.85627256      0.00000000
 134  2      5.56605000      3.85627256      0.00000000
 135  2      6.67926000      3.85627256      0.00000000
 136  2      7.79247000      3.85627256      0.00000000
 137  2      8.90568000      3.85627256      0.00000000
 138  2     10.01889000      3.85627256      0.00000000
 139  2     11.13210000      3.85627256      0.00000000
 140  2     12.24531000      3.85627256      0.00000000
 141  2     13.35852000      3.85627256      0.00000000
 142  2     14.47173000      3.85627256      0.00000000
 143  2     15.58494000      3.85627256      0.00000000
 144  2     16.69815000      3.85627256      0.00000000
 145  2     17.81136000      3.85627256      0.00000000
 146  2     18.92457000      3.85627256      0.00000000
 147  2     20.03778000      3.85627256      0.00000000
 148  2     21.15099000      3.85627256      0.00000000
 149  2     22.26420000      3.85627256      0.00000000
 150  2     23.37741000      3.85627256      0.00000000
 151  2     24.49062000      3.85627256      0.00000000
 152  2     25.60383000      3.85627256      0.00000000
 153  2     26.71704000      3.85627256      0.00000000
 154  2     27.83025000      3.85627256      0.00000000
 155  2     28.94346000      3.85627256      0.00000000
 156  2     30.05667000      3.85627256      0.00000000
 157  2     31.16988000      3.85627256      0.00000000
 158  2     32.28309000      3.85627256      0.00000000
 159  2     33.39630000      3.85627256      0.00000000
 160  2     34.50951001      3.85627256      0.00000000
 161  2     35.62272001      3.85627256      0.00000000
 162  2     36.73593001      3.85627256      0.00000000
 163  2     37.84914001      3.85627256      0.00000000
 164  2     38.96235001      3.85627256      0.00000000
 165  2     40.07556001      3.85627256      0.00000000
 166  2     41.18877001      3.85627256      0.00000000
 167  2     42.30198001      3.85627256      0.00000000
 168  2     43.41519001      3.85627256      0.00000000
 169  2     44.52840001      3.85627256      0.00000000
 170  2     45.64161001      3.85627256      0.00000000
 171  2     46.75482001      3.85627256      0.00000000
 172  2     47.86803001      3.85627256      0.00000000
 173  2     48.98124001      3.85627256      0.00000000
 174  2     50.09445001      3.85627256      0.00000000
 175  2     51.20766001      3.85627256      0.00000000
 176  2     52.32087001      3.85627256      0.00000000
 177  2     53.43408001      3.85627256      0.00000000
 178  2     54.54729001      3.85627256      0.00000000
 179  2     55.66050001      3.85627256      0.00000000
 180  2     56.77371001      3.85627256      0.00000000
 181  2     57.88692001      3.85627256      0.00000000
 182  2     59.00013001      3.85627256      0.00000000
 183  2     60.11334001      3.85627256      0.00000000
 184  2     61.22655001      3.85627256      0.00000000
 185  2     62.33976001      3.85627256      0.00000000
 186  2     63.45297001      3.85627256      0.00000000
 187  2     64.56618001      3.85627256      0.00000000
 188  2     65.67939001      3.85627256      0.00000000
 189  2     66.79260001      3.85627256      0.00000000
 190  2     67.90581001      3.85627256      0.00000000
 191  2     69.01902001      3.85627256      0.00000000
 192  2     70.13223001      3.85627256      0.00000000
 193  2      0.00000000      5.78440884      0.00000000
 194  2      1.11321000      5.78440884      0.00000000
 195  2      2.22642000      5.78440884      0.00000000
 196  2      3.33963000      5.78440884      0.00000000
 197  2      4.45284000      5.78440884      0.00000000
 198  2      5.56605000      5.78440884      0.00000000
 199  2      6.67926000      5.78440884      0.00000000
 200  2      7.79247000      5.78440884      0.00000000
 201  2      8.90568000      5.78440884      0.00000000
 202  2     10.01889000      5.78440884      0.00000000
 203  2     11.13210000      5.78440884      0.00000000
 204  2     12.24531000      5.78440884      0.00000000
 205  2     13.35852000      5.78440884      0.00000000
 206  2     14.47173000      5.78440884      0.00000000
 207  2     15.58494000      5.78440884      0.00000000
 208  2     16.69815000      5.78440884      0.00000000
 209  2     17.81136000      5.78440884      0.00000000
 210  2     18.92457000      5.78440884      0.00000000
 211  2     20.03778000      5.78440884      0.00000000
 212  2     21.15099000      5.78440884      0.00000000
 213  2     22.26420000      5.78440884      0.00000000
 214  2     23.37741000      5.78440884      0.00000000
 215  2     24.49062000      5.78440884      0.00000000
 216  2     25.60383000      5.78440884      0.00000000
 217  2     26.71704000      5.78440884      0.00000000
 218  2     27.83025000      5.78440884      0.00000000
 219  2     28.94346000      5.78440884      0.00000000
 220  2     30.05667000      5.78440884      0.00000000
 221  2     31.16988000      5.78440884      0.00000000
 222  2     32.28309000      5.78440884      0.00000000
 223  2     33.39630000      5.78440884      0.00000000
 224  2     34.50951001      5.78440884      0.00000000
 225  2     35.62272001      5.78440884      0.00000000
 226  2     36.73593001      5.78440884      0.00000000
 227  2     37.84914001      5.78440884      0.00000000
 228  2     38.96235001      5.78440884      0.00000000
 229  2     40.07556001      5.78440884      0.00000000
 230  2     41.18877001      5.78440884      0.00000000
 231  2     42.30198001      5.78440884      0.00000000
 232  2     43.41519001      5.78440884      0.00000000
 233  2     44.52840001      5.78440884      0.00000000
 234  2     45.64161001      5.78440884      0.00000000
 235  2     46.75482001      5.78440884      0.00000000
 236  2     47.86803001      5.78440884      0.00000000
 237  2     48.98124001      5.78440884      0.00000000
 238  2     50.09445001      5.78440884      0.00000000
 239  2     51.20766001      5.78440884      0.00000000
 240  2     52.32087001      5.78440884      0.00000000
 241  2     53.43408001      5.78440884      0.00000000
 242  2     54.54729001      5.78440884      0.00000000
 243  2     55.66050001      5.78440884      0.00000000
 244  2     56.77371001      5.78440884      0.00000000
 245  2     57.88692001      5.78440884      0.00000000
 246  2     59.00013001      5.78440884      0.00000000
 247  2     60.11334001      5.78440884      0.00000000
 248  2     61.22655001      5.78440884      0.00000000
 249  2     62.33976001      5.78440884      0.00000000
 250  2     63.45297001      5.78440884      0.00000000
 251  2     64.56618001      5.78440884      0.00000000
 252  2     65.67939001      5.78440884      0.00000000
 253  2     66.79260001      5.78440884      0.00000000
 254  2     67.90581001      5.78440884      0.00000000
 255  2     69.01902001      5.78440884      0.00000000
 256  2     70.13223001      5.78440884      0.00000000
 257  2      0.00000000      7.71254512      0.00000000
 258  2      1.11321000      7.71254512      0.00000000
 259  2      2.22642000      7.71254512      0.00000000
 260  2      3.33963000      7.71254512      0.00000000
 261  2      4.45284000      7.71254512      0.00000000
 262  2      5.56605000      7.71254512      0.00000000
 263  2      6.67926000      7.71254512      0.00000000
 264  2      7.79247000      7.71254512      0.00000000
 265  2      8.90568000      7.71254512      0.00000000
 266  2     10.01889000      7.71254512      0.00000000
 267  2     11.13210000      7.71254512      0.00000000
 268  2     12.24531000      7.71254512      0.00000000
 269  2     13.35852000      7.71254512      0.00000000
 270  2     14.47173000      7.71254512      0.00000000
 271  2     15.58494000      7.71254512      0.00000000
 272  2     16.69815000      7.71254512      0.00000000
 273  2     17.81136000      7.71254512      0.00000000
 274  2     18.92457000      7.71254512      0.00000000
 275  2     20.03778000      7.71254512      0.00000000
 276  2     21.15099000      7.71254512      0.00000000
 277  2     22.26420000      7.71254512      0.00000000
 278  2     23.37741000      7.71254512      0.00000000
 279  2     24.49062000      7.71254512      0.00000000
 280  2     25.60383000      7.71254512      0.00000000
 281  2     26.71704000      7.71254512      0.00000000
 282  2     27.83025000      7.71254512      0.00000000
 283  2     28.94346000      7.71254512      0.00000000
 284  2     30.05667000      7.71254512      0.00000000
 285  2     31.16988000      7.71254512      0.00000000
 286  2     32.28309000      7.71254512      0.00000000
 287  2     33.39630000      7.71254512      0.00000000
 288  2     34.50951001      7.71254512      0.00000000
 289  2     35.62272001      7.71254512      0.00000000
 290  2     36.73593001      7.71254512      0.00000000
 291  2     37.84914001      7.71254512      0.00000000
 292  2     38.96235001      7.71254512      0.00000000
 293  2     40.07556001      7.71254512      0.00000000
 294  2     41.18877001      7.71254512      0.00000000
 295  2     42.30198001      7.71254512      0.00000000
 296  2     43.41519001      7.71254512      0.00000000
 297  2     44.52840001      7.71254512      0.00000000
 298  2     45.64161001      7.71254512      0.00000000
 299  2     46.75482001      7.71254512      0.00000000
 300  2     47.86803001      7.71254512      0.00000000
 301  2     48.98124001      7.71254512      0.00000000
 302  2     50.09445001      7.71254512      0.00000000
 303  2     51.20766001      7.71254512      0.00000000
 304  2     52.32087001      7.71254512      0.00000000
 305  2     53.43408001      7.71254512      0.00000000
 306  2     54.54729001      7.71254512      0.00000000
 307  2     55.66050001      7.71254512      0.00000000
 308  2     56.77371001      7.71254512      0.00000000
 309  2     57.88692001      7.71254512      0.00000000
 310  2     59.00013001      7.71254512      0.00000000
 311  2     60.11334001      7.71254512      0.00000000
 312  2     61.22655001      7.71254512      0.00000000
 313  2     62.33976001      7.71254512      0.00000000
 314  2     63.45297001      7.71254512      0.00000000
 315  2     64.56618001      7.71254512      0.00000000
 316  2     65.67939001      7.71254512      0.00000000
 317  2     66.79260001      7.71254512      0.00000000
 318  2     67.90581001      7.71254512      0.00000000
 319  2     69.01902001      7.71254512      0.00000000
 320  2     70.13223001      7.71254512      0.00000000
 321  2      0.00000000      9.64068140      0.00000000
 322  2      1.11321000      9.64068140      0.00000000
 323  2      2.22642000      9.64068140      0.00000000
 324  2      3.33963000      9.64068140      0.00000000
 325  2      4.45284000      9.64068140      0.00000000
 326  2      5.56605000      9.64068140      0.00000000
 327  2      6.67926000      9.64068140      0.00000000
 328  2      7.79247000      9.64068140      0.00000000
 329  2      8.90568000      9.64068140      0.00000000
 330  2     10.01889000      9.64068140      0.00000000
 331  2     11.13210000      9.64068140      0.00000000
 332  2     12.24531000      9.64068140      0.00000000
 333  2     13.35852000      9.64068140      0.00000000
 334  2     14.47173000      9.64068140      0.00000000
 335  2     15.58494000      9.64068140      0.00000000
 336  2     16.69815000      9.64068140      0.00000000
 337  2     17.81136000      9.64068140      0.00000000
 338  2     18.92457000      9.64068140      0.00000000
 339  2     20.03778000      9.64068140      0.00000000
 340  2     21.15099000      9.64068140      0.00000000
 341  2     22.26420000      9.64068140      0.00000000
 342  2     23.37741000      9.64068140      0.00000000
 343  2     24.49062000      9.64068140      0.00000000
 344  2     25.60383000      9.64068140      0.00000000
 345  2     26.71704000      9.64068140      0.00000000
 346  2     27.83025000      9.64068140      0.00000000
 347  2     28.94346000      9.64068140      0.00000000
 348  2     30.05667000      9.64068140      0.00000000
 349  2     31.16988000      9.64068140      0.00000000
 350  2     32.28309000      9.64068140      0.00000000
 351  2     33.39630000      9.64068140      0.00000000
 352  2     34.50951001      9.64068140      0.00000000
 353  2     35.62272001      9.64068140      0.00000000
 354  2     36.73593001      9.64068140      0.00000000
 355  2     37.84914001      9.64068140      0.00000000
 356  2     38.96235001      9.64068140      0.00000000
 357  2     40.07556001      9.64068140      0.00000000
 358  2     41.18877001      9.64068140      0.00000000
 359  2     42.30198001      9.64068140      0.00000000
 360  2     43.41519001      9.64068140      0.00000000
 361  2     44.52840001      9.64068140      0.00000000
 362  2     45.64161001      9.64068140      0.00000000
 363  2     46.75482001      9.64068140      0.00000000
 364  2     47.86803001      9.64068140      0.00000000
 365  2     48.98124001      9.64068140      0.00000000
 366  2     50.09445001      9.64068140      0.00000000
 367  2     51.20766001      9.64068140      0.00000000
 368  2     52.32087001      9.64068140      0.00000000
 369  2     53.43408001      9.64068140      0.00000000
 370  2     54.54729001      9.64068140      0.00000000
 371  2     55.66050001      9.64068140      0.00000000
 372  2     56.77371001      9.64068140      0.00000000
 373  2     57.88692001      9.64068140      0.00000000
 374  2     59.00013001      9.64068140      0.00000000
 375  2     60.11334001      9.64068140      0.00000000
 376  2     61.22655001      9.64068140      0.00000000
 377  2     62.33976001      9.64068140      0.00000000
 378  2     63.45297001      9.64068140      0.00000000
 379  2     64.56618001      9.64068140      0.00000000
 380  2     65.67939001      9.64068140      0.00000000
 381  2     66.79260001      9.64068140      0.00000000
 382  2     67.90581001      9.64068140      0.00000000
 383  2     69.01902001      9.64068140      0.00000000
 384  2     70.13223001      9.64068140      0.00000000
 385  2      0.00000000     11.56881768      0.00000000
 386  2      1.11321000     11.56881768      0.00000000
 387  2      2.22642000     11.56881768      0.00000000
 388  2      3.33963000     11.56881768      0.00000000
 389  2      4.45284000     11.56881768      0.00000000
 390  2      5.56605000     11.56881768      0.00000000
 391  2      6.67926000     11.56881768      0.00000000
 392  2      7.79247000     11.56881768      0.00000000
 393  2      8.90568000     11.56881768      0.00000000
 394  2     10.01889000     11.56881768      0.00000000
 395  2     11.13210000     11.56881768      0.00000000
 396  2     12.24531000     11.56881768      0.00000000
 397  2     13.35852000     11.56881768      0.00000000
 398  2     14.47173000     11.56881768      0.00000000
 399  2     15.58494000     11.56881768      0.00000000
 400  2     16.69815000     11.56881768      0.00000000
 401  2     17.81136000     11.56881768      0.00000000
 402  2     18.92457000     11.56881768      0.00000000
 403  2     20.03778000     11.56881768      0.00000000
 404  2     21.15099000     11.56881768      0.00000000
 405  2     22.26420000     11.56881768      0.00000000
 406  2     23.37741000     11.56881768      0.00000000
 407  2     24.49062000     11.56881768      0.00000000
 408  2     25.60383000     11.56881768      0.00000000
 409  2     26.71704000     11.56881768      0.00000000
 410  2     27.83025000     11.56881768      0.00000000
 411  2     28.94346000     11.56881768      0.00000000
 412  2     30.05667000     11.56881768      0.00000000
 413  2     31.16988000     11.56881768      0.00000000
 414  2     32.28309000     11.56881768      0.00000000
 415  2     33.39630000     11.56881768      0.00000000
 416  2     34.50951001     11.56881768      0.00000000
 417  2     35.62272001     11.56881768      0.00000000
 418  2     36.73593001     11.56881768      0.00000000
 419  2     37.84914001     11.56881768      0.00000000
 420  2     38.96235001     11.56881768      0.00000000
 421  2     40.07556001     11.56881768      0.00000000
 422  2     41.18877001     11.56881768      0.00000000
 423  2     42.30198001     11.56881768      0.00000000
 424  2     43.41519001     11.56881768      0.00000000
 425  2     44.52840001     11.56881768      0.00000000
 426  2     45.64161001     11.56881768      0.00000000
 427  2     46.75482001     11.56881768      0.00000000
 428  2     47.86803001     11.56881768      0.00000000
 429  2     48.98124001     11.56881768      0.00000000
 430  2     50.09445001     11.56881768      0.00000000
 431  2     51.20766001     11.56881768      0.00000000
 432  2     52.32087001     11.56881768      0.00000000
 433  2     53.43408001     11.56881768      0.00000000
 434  2     54.54729001     11.56881768      0.00000000
 435  2     55.66050001     11.56881768      0.00000000
 436  2     56.77371001     11.56881768      0.00000000
 437  2     57.88692001     11.56881768      0.00000000
 438  2     59.00013001     11.56881768      0.00000000
 439  2     60.11334001     11.56881768      0.00000000
 440  2     61.22655001     11.56881768      0.00000000
 441  2     62.33976001     11.56881768      0.00000000
 442  2     63.45297001     11.56881768      0.00000000
 443  2     64.56618001     11.56881768      0.00000000
 444  2     65.67939001     11.56881768      0.00000000
 445  2     66.79260001     11.56881768      0.00000000
 446  2     67.90581001     11.56881768      0.00000000
 447  2     69.01902001     11.56881768      0.00000000
 448  2     70.13223001     11.56881768      0.00000000
 449  2      0.00000000     13.49695396      0.00000000
 450  2      1.11321000     13.49695396      0.00000000
 451  2      2.22642000     13.49695396      0.00000000
 452  2      3.33963000     13.49695396      0.00000000
 453  2      4.45284000     13.49695396      0.00000000
 454  2      5.56605000     13.49695396      0.00000000
 455  2      6.67926000     13.49695396      0.00000000
 456  2      7.79247000     13.49695396      0.00000000
 457  2      8.90568000     13.49695396      0.00000000
 458  2     10.01889000     13.49695396      0.00000000
 459  2     11.13210000     13.49695396      0.00000000
 460  2     12.24531000     13.49695396      0.00000000
 461  2     13.35852000     13.49695396      0.00000000
 462  2     14.47173000     13.49695396      0.00000000
 463  2     15.58494000     13.49695396      0.00000000
 464  2     16.69815000     13.49695396      0.00000000
 465  2     17.81136000     13.49695396      0.00000000
 466  2     18.92457000     13.49695396      0.00000000
 467  2     20.03778000     13.49695396      0.00000000
 468  2     21.15099000     13.49695396      0.00000000
 469  2     22.26420000     13.49695396      0.00000000
 470  2     23.37741000     13.49695396      0.00000000
 471  2     24.49062000     13.49695396      0.00000000
 472  2     25.60383000     13.49695396      0.00000000
 473  2     26.71704000     13.49695396      0.00000000
 474  2     27.83025000     13.49695396      0.00000000
 475  2     28.94346000     13.49695396      0.00000000
 476  2     30.05667000     13.49695396      0.00000000
 477  2     31.16988000     13.49695396      0.00000000
 478  2     32.28309000     13.49695396      0.00000000
 479  2     33.39630000     13.49695396      0.00000000
 480  2     34.50951001     13.49695396      0.00000000
 481  2     35.62272001     13.49695396      0.00000000
 482  2     36.73593001     13.49695396      0.00000000
 483  2     37.84914001     13.49695396      0.00000000
 484  2     38.96235001     13.49695396      0.00000000
 485  2     40.07556001     13.49695396      0.00000000
 486  2     41.18877001     13.49695396      0.00000000
 487  2     42.30198001     13.49695396      0.00000000
 488  2     43.41519001     13.49695396      0.00000000
 489  2     44.52840001     13.49695396      0.00000000
 490  2     45.64161001     13.49695396      0.00000000
 491  2     46.75482001     13.49695396      0.00000000
 492  2     47.86803001     13.49695396      0.00000000
 493  2     48.98124001     13.49695396      0.00000000
 494  2     50.09445001     13.49695396      0.00000000
 495  2     51.20766001     13.49695396      0.00000000
 496  2     52.32087001     13.49695396      0.00000000
 497  2     53.43408001     13.49695396      0.00000000
 498  2     54.54729001     13.49695396      0.00000000
 499  2     55.66050001     13.49695396      0.00000000
 500  2     56.77371001     13.49695396      0.00000000
 501  2     57.88692001     13.49695396      0.00000000
 502  2     59.00013001     13.49695396      0.00000000
 503  2     60.11334001     13.49695396      0.00000000
 504  2     61.22655001     13.49695396      0.00000000
 505  2     62.33976001     13.49695396      0.00000000
 506  2     63.45297001     13.49695396      0.00000000
 507  2     64.56618001     13.49695396      0.00000000
 508  2     65.67939001     13.49695396      0.00000000
 509  2     66.79260001     13.49695396      0.00000000
 510  2     67.90581001     13.49695396      0.00000000
 511  2     69.01902001     13.49695396      0.00000000
 512  2     70.13223001     13.49695396      0.00000000
 513  2      0.00000000     15.42509024      0.00000000
 514  2      1.11321000     15.42509024      0.00000000
 515  2      2.22642000     15.42509024      0.00000000
 516  2      3.33963000     15.42509024      0.00000000
 517  2      4.45284000     15.42509024      0.00000000
 518  2      5.56605000     15.42509024      0.00000000
 519  2      6.67926000     15.42509024      0.00000000
 520  2      7.79247000     15.42509024      0.00000000
 521  2      8.90568000     15.42509024      0.00000000
 522  2     10.01889000     15.42509024      0.00000000
 523  2     11.13210000     15.42509024      0.00000000
 524  2     12.24531000     15.42509024      0.00000000
 525  2     13.35852000     15.42509024      0.00000000
 526  2     14.47173000     15.42509024      0.00000000
 527  2     15.58494000     15.42509024      0.00000000
 528  2     16.69815000     15.42509024      0.00000000
 529  2     17.81136000     15.42509024      0.00000000
 530  2     18.92457000     15.42509024      0.00000000
 531  2     20.03778000     15.42509024      0.00000000