LAMMPS (7 Jul 2009)
# 2D LJ simulation
dimension      2
boundary       p f p
units          lj
atom_style     atomic

# Lattice geometry
read_data      data.pos
  orthogonal box = (0 -10 -0.0001) to (71.2454 80 0.0001)
  2 by 2 by 1 processor grid
  4736 atoms

#define groups
group          upper  type 1
64 atoms in group upper
group          slab   type 2
4608 atoms in group slab
group          bottom type 3
64 atoms in group bottom

# Lennard-Jones interactions
pair_style     lj/cut 2.5
pair_coeff     * * 1.0 1.0 2.5

# masses
mass           1 1.0
mass           2 1.0
mass           3 1.0

# Exclude interactions between atoms in fixed group upper
neighbor       0.5 nsq

#Langevin random seed, temperature and damping variable
variable       r equal 23827
variable       t equal 0.01
variable       d equal 0.1

# initial velocities and temperature control
compute        MyTemp all temp/partial 1 1 0
compute        MyPres all pressure MyTemp
velocity       all create $t 4713 mom yes rot yes dist gaussian temp MyTemp
velocity       all create 0.01 4713 mom yes rot yes dist gaussian temp MyTemp

# define fixes
fix            1 all langevin $t $t $d $r
fix            1 all langevin 0.01 $t $d $r
fix            1 all langevin 0.01 0.01 $d $r
fix            1 all langevin 0.01 0.01 0.1 $r
fix            1 all langevin 0.01 0.01 0.1 23827
fix_modify     1 temp MyTemp
fix            2 all nve
# Elastic stiffness coefficients measurement, 1 atom per unit cell
fix            3 bottom gfc 20 100000 1000000 LJ2D_prim su 1.11321 0
fix_modify     3 temp MyTemp
# complex lattice with 2 atoms per unit cell, for comparison only
fix            4 bottom gfc 20 100000 1000000 LJ2D_comp su 2.22642 0
fix_modify     4 temp MyTemp
# Ensure 2D simulation
fix            5 all enforce2d

# Customize thermo output
thermo         10000
thermo_style   custom step temp pe ke etotal press pxx pyy pxy press
thermo_modify  press MyPres temp MyTemp

# write snapshot every 1000th timestep in "LAMMPS" format.
# This file can be read in with VMD and viewed as a movie
dump           1 all atom 50000 dump2D_GFC.lammpstrj 

# run for these many timesteps
run 	         11000000
Memory usage per processor = 1.49487 Mbytes
Step Temp PotEng KinEng TotEng Press Pxx Pyy Pxy Press 
       0         0.01   -3.2860855 0.0099978885   -3.2760876  0.013116248  0.012310817  0.013921679 7.1152926e-05  0.013116248 
   10000  0.009893261   -3.2763115  0.009891172   -3.2664203  0.040654962  0.056078971  0.025230953 -0.0018090018  0.040654962 
   20000 0.0099950547   -3.2758842 0.0099929443   -3.2658913  0.025053561  0.050478908 -0.00037178531 -0.0049606421  0.025053561 
   30000  0.010082996   -3.2762734  0.010080867   -3.2661926  0.021102237  0.046973431 -0.0047689568 -0.0055338139  0.021102237 
   40000 0.0099246801   -3.2761967 0.0099225846   -3.2662741  0.014154478  0.044080694 -0.015771739 -0.0073893092  0.014154478 
   50000  0.010069951   -3.2759584  0.010067825   -3.2658905  0.018802055  0.047016744 -0.0094126334 -0.0090864544  0.018802055 
   60000  0.010107668   -3.2758386  0.010105534    -3.265733  0.025247845  0.050769373 -0.00027368398 -0.0028163637  0.025247845 
   70000 0.0099844983   -3.2761126 0.0099823901   -3.2661302   0.02249973  0.048464109 -0.0034646492 -0.0085642807   0.02249973 
   80000 0.0097869669   -3.2758425 0.0097849004   -3.2660576  0.019525215  0.048946839 -0.0098964078 -0.0039626112  0.019525215 
   90000  0.010054049    -3.276193  0.010051926   -3.2661411  0.023807094  0.049200557 -0.0015863678 -0.0011378168  0.023807094 
  100000 0.0098976333   -3.2761598 0.0098955434   -3.2662642  0.027544155  0.050947683 0.0041406272 0.0029702935  0.027544155 
  110000 0.0098448829   -3.2760663 0.0098428041   -3.2662235  0.035132337  0.053417669  0.016847004 -0.0084020912  0.035132337 
  120000 0.0098050064   -3.2761971 0.0098029361   -3.2663942  0.014803155  0.044355035 -0.014748725 -0.0015281486  0.014803155 
  130000 0.0097635133   -3.2760734 0.0097614518    -3.266312   0.01813071  0.046534457 -0.010273036 0.00085384426   0.01813071 
  140000 0.0098649989   -3.2760114 0.0098629159   -3.2661485  0.020060141  0.048179542 -0.0080592609  0.003484967  0.020060141 
  150000 0.0097583668   -3.2760308 0.0097563063   -3.2662745   0.02708459    0.0507234  0.003445779 0.0042682959   0.02708459 
  160000   0.01031184   -3.2761946  0.010309663   -3.2658849  0.028361025  0.051941864 0.0047801853 0.0023075722  0.028361025 
  170000  0.010027453   -3.2759607  0.010025335   -3.2659354  0.015511305   0.04582176  -0.01479915 -0.0071591052  0.015511305 
  180000 0.0099967881   -3.2761928 0.0099946772   -3.2661982  0.022629063  0.047973869 -0.0027157419 -0.0089411189  0.022629063 
  190000 0.0097382853    -3.276138  0.009736229   -3.2664018  0.040092605  0.058483575  0.021701636 -0.007115039  0.040092605 
  200000 0.0099802246   -3.2760754 0.0099781173   -3.2660973  0.024967938  0.051223479 -0.0012876027 -0.009086963  0.024967938 
  210000  0.010107282    -3.276225  0.010105148   -3.2661198  0.038426519  0.055934351  0.020918687 -0.0050249679  0.038426519 
  220000 0.0096954174   -3.2761882 0.0096933703   -3.2664948  0.024275465  0.049692022 -0.0011410915 -0.0050537374  0.024275465 
  230000 0.0098403965   -3.2759632 0.0098383188   -3.2661249  0.024999224  0.049634411 0.00036403779 0.00019783008  0.024999224 
  240000  0.010013967   -3.2761791  0.010011853   -3.2661673  0.027715576  0.052463663 0.0029674887 -0.0018183042  0.027715576 
  250000 0.0098466451   -3.2760593  0.009844566   -3.2662147   0.02539447  0.050446566 0.00034237475 -0.007140765   0.02539447 
  260000 0.0098790483   -3.2762411 0.0098769623   -3.2663642  0.012338224  0.042468172 -0.017791724 -0.0049783243  0.012338224 
  270000 0.0099364371   -3.2758767 0.0099343391   -3.2659423  0.012154042  0.044324578 -0.020016494 -0.0081838664  0.012154042 
  280000 0.0099781946    -3.276189 0.0099760877   -3.2662129  0.021038049  0.047752635 -0.0056765372 -0.0031480756  0.021038049 
  290000  0.010051326   -3.2757859  0.010049204   -3.2657367  0.020469936  0.049191909 -0.0082520369 -0.0089057132  0.020469936 
  300000 0.0099844615     -3.27602 0.0099823533   -3.2660376 0.0079587328  0.042446875  -0.02652941 -0.0087291343 0.0079587328 
  310000 0.0099036728   -3.2760775 0.0099015816   -3.2661759  0.021077267  0.048083398 -0.0059288654 -0.0087279825  0.021077267 
  320000  0.010066745   -3.2761249  0.010064619   -3.2660603  0.031055775  0.053895298  0.008216251 -0.0078182013  0.031055775 
  330000 0.0098993944   -3.2758187 0.0098973042   -3.2659214  0.031915458  0.053665019  0.010165898 -0.0083240844  0.031915458 
  340000  0.010014672   -3.2762866  0.010012557    -3.266274  0.017581028  0.045487959 -0.010325903 -0.0004413377  0.017581028 
  350000 0.0099976499   -3.2761076 0.0099955389   -3.2661121  0.015408226  0.044868733 -0.014052281 0.0048216762  0.015408226 
  360000 0.0099322297   -3.2762178 0.0099301326   -3.2662877  0.021236283  0.047661586 -0.0051890193  0.010170741  0.021236283 
  370000  0.010087461    -3.276013  0.010085331   -3.2659276  0.021835788  0.049057903 -0.0053863272 0.0090106254  0.021835788 
  380000 0.0098393002   -3.2760931 0.0098372226   -3.2662559  0.031687359  0.052979048   0.01039567  0.012115236  0.031687359 
  390000  0.010088978   -3.2760149  0.010086848   -3.2659281   0.02178981  0.048250215 -0.0046705947 0.0081889207   0.02178981 
  400000  0.010278668   -3.2760811  0.010276498   -3.2658046  0.015796283  0.046509397 -0.014916831 -0.00062192356  0.015796283 
  410000  0.010198228   -3.2762085  0.010196075   -3.2660124  0.016767225  0.045674028 -0.012139578 -0.0024830929  0.016767225 
  420000 0.0099656706   -3.2759947 0.0099635663   -3.2660311  0.025302912  0.050886746 -0.00028092235 -0.0013568842  0.025302912 
  430000  0.009959241   -3.2761441 0.0099571382    -3.266187  0.026367601  0.051062044 0.0016731579 -0.00021912892  0.026367601 
  440000  0.010006978   -3.2763384  0.010004865   -3.2663335  0.030821487  0.052216296 0.0094266771 -0.001025804  0.030821487 
  450000  0.010202168    -3.276182  0.010200014    -3.265982  0.026731716  0.051279745  0.002183687 -0.0062328931  0.026731716 
  460000 0.0099318093   -3.2761343 0.0099297122   -3.2662046  0.027446664  0.051377562 0.0035157657 0.0014667212  0.027446664 
  470000 0.0098894188   -3.2758995 0.0098873307   -3.2660122  0.026291411  0.050616806 0.0019660157 -0.004252736  0.026291411 
  480000 0.0098544393   -3.2759752 0.0098523585   -3.2661229  0.030712717  0.053261461 0.0081639727  0.011751079  0.030712717 
  490000  0.010158527   -3.2764766  0.010156382   -3.2663202   0.01542797   0.04407862 -0.013222681 0.0027240302   0.01542797 
  500000  0.010030526    -3.276023  0.010028408   -3.2659946  0.014385878  0.045731532 -0.016959776 0.0026001164  0.014385878 
  510000 0.0099471537   -3.2763714 0.0099450533   -3.2664263  0.023914676  0.049259763 -0.0014304117 0.00085978018  0.023914676 
  520000  0.010150476     -3.27599  0.010148333   -3.2658417  0.024016858  0.050809208 -0.0027754914 -0.00059429819  0.024016858 
  530000  0.010015292   -3.2761402  0.010013177    -3.266127  0.028264064  0.051912661 0.0046154675 -0.0013342175  0.028264064 
  540000  0.010004156   -3.2759515  0.010002044   -3.2659494  0.026529369  0.052308262 0.00075047607 8.677934e-05  0.026529369 
  550000  0.010092563     -3.27625  0.010090432   -3.2661596  0.038641612  0.056071279  0.021211944 0.0053517029  0.038641612 
  560000  0.010197624   -3.2760564  0.010195471    -3.265861  0.025761208  0.049989083 0.0015333335 0.0050606063  0.025761208 
  570000  0.010082907   -3.2760449  0.010080778   -3.2659642  0.027752735  0.052236742 0.0032687276 0.0056892977  0.027752735 
  580000 0.0099863961   -3.2763885 0.0099842875   -3.2664042  0.029157085  0.051324424 0.0069897454 0.0082232586  0.029157085 
  590000  0.010104514   -3.2758961   0.01010238   -3.2657937  0.029669922  0.053209479 0.0061303641  0.015442032  0.029669922 
  600000  0.010030932   -3.2761716  0.010028814   -3.2661428   0.01636068  0.046477178 -0.013755819 0.0046927364   0.01636068 
  610000  0.010001288   -3.2760802 0.0099991767    -3.266081  0.014670246  0.045225466 -0.015884973 0.0028652367  0.014670246 
  620000 0.0097930534    -3.276162 0.0097909856    -3.266371  0.022000468  0.047327456 -0.0033265207 0.0048649636  0.022000468 
  630000 0.0098673298   -3.2761885 0.0098652463   -3.2663233  0.028122946  0.052238191 0.0040077009   0.00420035  0.028122946 
  640000  0.010099879   -3.2760575  0.010097747   -3.2659598  0.033973274  0.055268205  0.012678344 0.0054677041  0.033973274 
  650000 0.0098628237    -3.276018 0.0098607412   -3.2661573  0.029280015  0.051989333  0.006570697 0.0035527737  0.029280015 
  660000   0.01034508   -3.2761922  0.010342896   -3.2658493  0.030705144  0.051898529 0.0095117597 -0.0036928048  0.030705144 
  670000  0.009990021   -3.2761811 0.0099879116   -3.2661932  0.035786857  0.055696269  0.015877445 -0.0030492286  0.035786857 
  680000 0.0097929886   -3.2761367 0.0097909209   -3.2663458  0.026514612  0.050550356 0.0024788669 -0.0049204421  0.026514612 
  690000 0.0097828406   -3.2760451  0.009780775   -3.2662643 0.0085292047  0.042836149 -0.025777739 -0.003740418 0.0085292047 
  700000  0.010133154   -3.2760263  0.010131015   -3.2658953   0.03010347  0.053253948 0.0069529912 -0.011570645   0.03010347 
  710000  0.009924808   -3.2760697 0.0099227124    -3.266147  0.022800702  0.049774958 -0.0041735534 -0.0033170451  0.022800702 
  720000   0.01016185   -3.2758251  0.010159704   -3.2656654  0.024963055   0.05195511 -0.0020290007 -0.0074774366  0.024963055 
  730000  0.010086256   -3.2762141  0.010084126     -3.26613  0.023522292  0.049127085 -0.0020825017 -0.0049233697  0.023522292 
  740000 0.0099260734   -3.2761899 0.0099239775    -3.266266  0.025150045  0.050167363 0.00013272763 -0.0012946164  0.025150045 
  750000 0.0099859733   -3.2760688 0.0099838648   -3.2660849  0.020940734   0.04767704 -0.0057955711 -0.0074473443  0.020940734 
  760000  0.010092595   -3.2762651  0.010090464   -3.2661746  0.021226241  0.047840193 -0.0053877116 0.0023836798  0.021226241 
  770000  0.010218066   -3.2761876  0.010215908   -3.2659717  0.030075502  0.053193482  0.006957523 -0.00026249218  0.030075502 
  780000  0.010098228   -3.2759779  0.010096096   -3.2658818  0.026760064  0.051693155 0.0018269731 -0.00025201745  0.026760064 
  790000 0.0098978425   -3.2760627 0.0098957526   -3.2661669   0.01846198  0.048058946 -0.011134986 -0.00054928283   0.01846198 
  800000  0.010000015   -3.2758887  0.009997903   -3.2658908  0.028229118  0.051621371 0.0048368645 -0.0078499467  0.028229118 
  810000  0.010140283   -3.2758363  0.010138142   -3.2656982  0.015064862  0.046201833 -0.016072109 -0.00076900781  0.015064862 
  820000  0.010138261   -3.2761804  0.010136121   -3.2660443   0.01610076  0.045588235 -0.013386714 -0.0066323537   0.01610076 
  830000  0.010199836   -3.2760243  0.010197683   -3.2658266  0.024200836  0.050610894 -0.0022092216 -0.0071847419  0.024200836 
  840000  0.010110717   -3.2762629  0.010108582   -3.2661543   0.02802118   0.05107814 0.0049642194 -0.0094006655   0.02802118 
  850000  0.010077749   -3.2762111  0.010075621   -3.2661354  0.040045533  0.056390353  0.023700714 -0.020129239  0.040045533 
  860000 0.0098305931   -3.2760123 0.0098285174   -3.2661838  0.034727457  0.055139194  0.014315719 -0.0096318288  0.034727457 
  870000 0.0099388266   -3.2761214  0.009936728   -3.2661846  0.031377359   0.05293931 0.0098154069 -0.013916248  0.031377359 
  880000 0.0096926311   -3.2760041 0.0096905845   -3.2663135  0.032482807   0.05349466  0.011470954 -0.011487353  0.032482807 
  890000 0.0099233606   -3.2757509 0.0099212653   -3.2658296  0.015684241  0.045853646 -0.014485164 -0.0072942264  0.015684241 
  900000 0.0098084527   -3.2760429 0.0098063817   -3.2662365  0.021756423  0.048711217 -0.0051983701 -0.0014827257  0.021756423 
  910000  0.010157622   -3.2760071  0.010155477   -3.2658516  0.031235312  0.053225554 0.0092450703 -0.0097003836  0.031235312 
  920000 0.0099911897   -3.2759216 0.0099890801   -3.2659325  0.030285524  0.052542577  0.008028472 -0.012208606  0.030285524 
  930000  0.010431599   -3.2763413  0.010429396   -3.2659119   0.02891695  0.051609347 0.0062245538  -0.00678582   0.02891695 
  940000  0.010084086   -3.2762924  0.010081957   -3.2662104  0.030197582  0.050966589 0.0094285736 -0.0065584253  0.030197582 
  950000 0.0098505906   -3.2760277 0.0098485107   -3.2661792  0.036398602  0.055889611  0.016907593 -0.0016809746  0.036398602 
  960000 0.0097651226   -3.2760042 0.0097630607   -3.2662411  0.031774584  0.055232741 0.0083164284 -0.0061424008  0.031774584 
  970000  0.010175077   -3.2761364  0.010172929   -3.2659634  0.025755141  0.050660678 0.00084960496 -0.0041142322  0.025755141 
  980000  0.010141363   -3.2759892  0.010139221     -3.26585  0.022126294  0.048931625 -0.0046790371 -0.0060221581  0.022126294 
  990000  0.010104841   -3.2762446  0.010102708   -3.2661419  0.024377507  0.050068521 -0.0013135066 -0.014282877  0.024377507 
 1000000   0.01007446   -3.2758022  0.010072333   -3.2657298  0.027713916  0.052884057 0.0025437748 -0.0065079914  0.027713916 
 1010000   0.01005608   -3.2760058  0.010053957   -3.2659519  0.028436915   0.05262838 0.0042454493 -0.0080247232  0.028436915 
 1020000 0.0098361673   -3.2759622 0.0098340904   -3.2661281   0.02958693  0.052951381 0.0062224786 -0.0032605904   0.02958693 
 1030000  0.010166061   -3.2760844  0.010163914   -3.2659205   0.03807693  0.057304927  0.018848934 0.00090614781   0.03807693 
 1040000  0.010222005   -3.2759973  0.010219847   -3.2657775  0.034448686  0.055217517  0.013679854 -0.0058703794  0.034448686 
 1050000  0.010068934   -3.2761985  0.010066808   -3.2661317  0.031758091  0.052845808  0.010670374 -0.00093838783  0.031758091 
 1060000  0.009881486   -3.2761294 0.0098793995     -3.26625  0.030743849  0.052128608 0.0093590903 -0.0018031467  0.030743849 
 1070000  0.010298356   -3.2760783  0.010296181   -3.2657821  0.031932004  0.054999603 0.0088644048 -0.0046011418  0.031932004 
 1080000  0.010044824   -3.2758669  0.010042703   -3.2658242  0.027421257  0.052668736 0.0021737788 -0.0095917508  0.027421257 
 1090000  0.009743837   -3.2763174 0.0097417796   -3.2665757  0.027369569   0.05055423 0.0041849083 -0.0084072733  0.027369569 
 1100000  0.010151221    -3.276023  0.010149078    -3.265874  0.034952591  0.056432402  0.013472781 -0.0033234095  0.034952591 
 1110000 0.0098061613   -3.2759528 0.0098040908   -3.2661487  0.025468838  0.051412813 -0.00047513657 -0.0012066179  0.025468838 
 1120000  0.010160324   -3.2761774  0.010158179   -3.2660192  0.023586035  0.049911736 -0.002739666 0.0054744271  0.023586035 
 1130000 0.0099042476   -3.2759939 0.0099021563   -3.2660918  0.021073319  0.048057161 -0.0059105221 3.3201083e-05  0.021073319 
 1140000 0.0096324627   -3.2761335 0.0096304288   -3.2665031   0.02760035  0.052228058 0.0029726429 0.0025992288   0.02760035 
 1150000  0.010170011   -3.2761142  0.010167864   -3.2659464  0.030707007  0.053656139 0.0077578756 -0.00082136738  0.030707007 
 1160000  0.010081038     -3.27585   0.01007891   -3.2657711  0.037883011  0.056964581   0.01880144 -0.0036636003  0.037883011 
 1170000 0.0099844934    -3.276027 0.0099823852   -3.2660446  0.022016407  0.047368518 -0.0033357035 -0.0019830137  0.022016407 
 1180000  0.010246235   -3.2760615  0.010244071   -3.2658174  0.026822407  0.051718241 0.0019265736 0.0046272942  0.026822407 
 1190000 0.0099142017   -3.2761984 0.0099121083   -3.2662863  0.024178416  0.049446555 -0.0010897232 -0.00070903097  0.024178416 
 1200000  0.010059688   -3.2758438  0.010057563   -3.2657862   0.01789547  0.046712636 -0.010921696 0.0010493099   0.01789547 
 1210000  0.010250689    -3.275867  0.010248525   -3.2656184  0.019869353  0.047964602 -0.0082258958 0.0097086651  0.019869353 
 1220000 0.0097349328   -3.2761248 0.0097328773    -3.266392  0.018866937  0.046265955 -0.0085320805  0.015335575  0.018866937 
 1230000 0.0098360128    -3.276088  0.009833936    -3.266254  0.031055639  0.053624979 0.0084862992  0.011251876  0.031055639 
 1240000  0.009927663   -3.2763139 0.0099255668   -3.2663884  0.013256365  0.043101538 -0.016588807  0.016982843  0.013256365 
 1250000  0.010073875   -3.2759893  0.010071748   -3.2659176  0.021042923  0.047587505 -0.0055016587 0.0059011099  0.021042923 
 1260000  0.010071163    -3.276108  0.010069036    -3.266039  0.022619088  0.048621858 -0.0033836822 0.0016655652  0.022619088 
 1270000  0.010093872   -3.2761131  0.010091741   -3.2660213  0.013497847  0.043434513 -0.016438818 0.0044893289  0.013497847 
 1280000  0.010018901   -3.2761471  0.010016786   -3.2661303  0.020917438  0.048058323 -0.0062234465 0.0037640358  0.020917438 
 1290000 0.0099830685   -3.2758332 0.0099809606   -3.2658522  0.013991736  0.046093786 -0.018110313 0.00047053959  0.013991736 
 1300000  0.009898733   -3.2758737 0.0098966429   -3.2659771  0.014058816  0.045555551 -0.017437918 -0.00019679049  0.014058816 
 1310000 0.0096995886   -3.2760861 0.0096975406   -3.2663886  0.033028494  0.053126519  0.012930468 0.0060925146  0.033028494 
 1320000 0.0099838295   -3.2760953 0.0099817215   -3.2661136  0.007717032  0.041576453 -0.026142389 0.0076570355  0.007717032 
 1330000  0.010051008   -3.2760375  0.010048886   -3.2659886   0.01260285  0.045086648 -0.019880947 0.0065855512   0.01260285 
 1340000  0.010047326   -3.2761024  0.010045204   -3.2660572  0.027395959  0.051763321 0.0030285966 0.0058294716  0.027395959 
 1350000  0.010070734   -3.2760797  0.010068608   -3.2660111  0.030850985  0.052356556 0.0093454147 0.0048741501  0.030850985 
 1360000 0.0099090297   -3.2762514 0.0099069375   -3.2663445  0.016555738  0.044751631 -0.011640155 -0.00037900017  0.016555738 
 1370000 0.0099616642   -3.2758759 0.0099595608   -3.2659164  0.019418517  0.048297152 -0.0094601182 -0.0033908305  0.019418517 
 1380000   0.01008108   -3.2760775  0.010078951   -3.2659985  0.037732016   0.05583891  0.019625123 0.0011661872  0.037732016 
 1390000  0.010066102   -3.2760754  0.010063976   -3.2660114  0.031160833  0.053422136 0.0088995298 -0.0032000262  0.031160833 
 1400000  0.010103885   -3.2760128  0.010101751    -3.265911  0.037520486  0.057273579  0.017767393 -0.0014406734  0.037520486 
 1410000   0.01011818   -3.2760045  0.010116044   -3.2658885  0.026626134  0.051660506 0.0015917632 -0.0040342721  0.026626134 
 1420000  0.010151713   -3.2761207  0.010149569   -3.2659711  0.024826126  0.049550219 0.00010203318 -0.0028043085  0.024826126 
 1430000 0.0097892173   -3.2759631 0.0097871503   -3.2661759   0.01947398  0.047611059 -0.0086630989 -0.004325933   0.01947398 
 1440000  0.010130851   -3.2759366  0.010128712   -3.2658078  0.020142283  0.047256142 -0.0069715751 -0.0045811236  0.020142283 
 1450000   0.01014272   -3.2759414  0.010140579   -3.2658008  0.032827253  0.054715339  0.010939167 -0.0035276129  0.032827253 
 1460000  0.010234551   -3.2759129   0.01023239   -3.2656805  0.029129355  0.053398743 0.0048599673 -0.0035250124  0.029129355 
 1470000 0.0098723745   -3.2758348   0.00987029   -3.2659646   0.02695803  0.052038635 0.0018774252 -0.0071015223   0.02695803 
 1480000  0.010007478   -3.2761037  0.010005364   -3.2660984  0.025532628  0.051031986 3.3269219e-05 -0.013533238  0.025532628 
 1490000 0.0098459329   -3.2762592 0.0098438539   -3.2664153   0.01936271  0.047159077 -0.0084336571 -0.0060284089   0.01936271 
 1500000 0.0099581353   -3.2760389 0.0099560327   -3.2660829   0.02307879  0.050672034 -0.0045144536  0.011766268   0.02307879 
 1510000 0.0099346409   -3.2760558 0.0099325432   -3.2661232  0.019550082  0.047328364 -0.0082282008 0.0033014828  0.019550082 
 1520000  0.010182917   -3.2759911  0.010180767   -3.2658103  0.017308321  0.047135839 -0.012519198 0.0033375509  0.017308321 
 1530000 0.0098558271   -3.2761908 0.0098537461   -3.2663371  0.027505571  0.051921619 0.0030895235 0.0071669586  0.027505571 
 1540000  0.010244012    -3.276433  0.010241849   -3.2661912  0.023180907  0.048754381 -0.0023925658  0.008912136  0.023180907 
 1550000  0.010212986   -3.2759088  0.010210829   -3.2656979   0.02826516  0.052828268 0.0037020513 0.0051823144   0.02826516 
 1560000  0.010082667   -3.2761065  0.010080538    -3.266026  0.022922868  0.048963811 -0.0031180749 0.0028729346  0.022922868 
 1570000 0.0099852136   -3.2759729 0.0099831052   -3.2659897  0.035100459  0.056229698   0.01397122 0.0026326944  0.035100459 
 1580000  0.010162078   -3.2762455  0.010159932   -3.2660856  0.029256619  0.051701181 0.0068120579 -0.0028738388  0.029256619 
 1590000  0.010140937   -3.2760193  0.010138796   -3.2658805   0.01904115  0.046891831 -0.0088095305 -0.0012037451   0.01904115 
 1600000 0.0099503846   -3.2761004 0.0099482835   -3.2661521   0.02388858  0.049630864 -0.0018537043 -0.0034986752   0.02388858 
 1610000  0.010131264   -3.2760376  0.010129125   -3.2659085  0.028172094  0.052255673  0.004088515 -0.0054215668  0.028172094 
 1620000  0.010088654   -3.2761023  0.010086524   -3.2660158  0.030299832  0.052966085 0.0076335787 -0.0082062599  0.030299832 
 1630000  0.010306749   -3.2762254  0.010304573   -3.2659209  0.028697047  0.050577096 0.0068169983 -0.0014383591  0.028697047 
 1640000  0.010112938   -3.2761451  0.010110803   -3.2660343  0.035780065  0.055970946  0.015589183 -0.0041108826  0.035780065 
 1650000  0.010013428   -3.2759401  0.010011313   -3.2659288  0.028309364  0.051796024 0.0048227039 -0.00030552411  0.028309364 
 1660000 0.0099815193   -3.2760337 0.0099794117   -3.2660543  0.025174862  0.049081796  0.001267927 -0.0072801566  0.025174862 
 1670000 0.0099795453   -3.2757913 0.0099774381   -3.2658139  0.032835627   0.05441022  0.011261034 -0.0058226591  0.032835627 
 1680000 0.0099449341   -3.2760105 0.0099428343   -3.2660677  0.026514597  0.050075812 0.0029533813 -0.0057193463  0.026514597 
 1690000  0.009836421   -3.2760594  0.009834344   -3.2662251  0.031024977  0.053475487 0.0085744675 -0.0057703264  0.031024977 
 1700000  0.010298558   -3.2761704  0.010296383   -3.2658741  0.020786192  0.048287687 -0.0067153032 -0.0084713546  0.020786192 
 1710000  0.010129236   -3.2760716  0.010127097   -3.2659445   0.02885563  0.051579004 0.0061322566 -0.0040910425   0.02885563 
 1720000  0.009975728    -3.276173 0.0099736216   -3.2661994 0.0046451232  0.039425991 -0.030135745 -0.0030125735 0.0046451232 
 1730000 0.0098713398   -3.2763619 0.0098692555   -3.2664926  0.015671607  0.044938534  -0.01359532 -0.012078482  0.015671607 
 1740000  0.010141935   -3.2762032  0.010139793   -3.2660634  0.020450128  0.046709887 -0.0058096304 -0.0066664667  0.020450128 
 1750000  0.010204101    -3.276068  0.010201947   -3.2658661  0.023345932   0.05053906 -0.0038471967 -0.0020021886  0.023345932 
 1760000  0.010127032   -3.2759628  0.010124894   -3.2658379  0.014486244  0.044701956 -0.015729469 0.00076399839  0.014486244 
 1770000  0.010224061   -3.2759383  0.010221902   -3.2657164  0.032979597  0.053899818  0.012059376 -0.0070338826  0.032979597 
 1780000 0.0099083758   -3.2762317 0.0099062837   -3.2663254  0.022576672  0.049312898 -0.0041595549 -0.0082604779  0.022576672 
 1790000  0.010162989     -3.27632  0.010160843   -3.2661592  0.033848931  0.053950732  0.013747129 -0.0038396224  0.033848931 
 1800000  0.010054578   -3.2760133  0.010052455   -3.2659609  0.033389698  0.053782175   0.01299722 -0.0024156775  0.033389698 
 1810000 0.0098956967   -3.2762854 0.0098936073   -3.2663918  0.028295833  0.051208548 0.0053831174 -0.0045094348  0.028295833 
 1820000 0.0099197497   -3.2762731 0.0099176552   -3.2663555  0.033878504  0.053440157  0.014316852 0.0046531793  0.033878504 
 1830000  0.010131356   -3.2761207  0.010129217   -3.2659915  0.021561946  0.047897007 -0.0047731145 0.0018326162  0.021561946 
 1840000  0.010439759   -3.2761689  0.010437555   -3.2657314  0.027147559  0.050519331  0.003775786 0.00026458298  0.027147559 
 1850000  0.010239875   -3.2761543  0.010237713   -3.2659166  0.027976379   0.05066751  0.005285247 0.0046724909  0.027976379 
 1860000  0.010244088    -3.276291  0.010241925    -3.266049  0.030344914  0.052993256 0.0076965724  0.007402889  0.030344914 
 1870000  0.009923137    -3.275964 0.0099210417    -3.266043  0.016304445  0.046515481 -0.013906591  0.007617817  0.016304445 
 1880000   0.01006136   -3.2761319  0.010059236   -3.2660727  0.025370083  0.051429857 -0.00068969004 0.0035555337  0.025370083 
 1890000 0.0098880638   -3.2759408  0.009885976   -3.2660548  0.031371589  0.053634612 0.0091085661 0.0055502701  0.031371589 
 1900000  0.010203732   -3.2760497  0.010201578   -3.2658481  0.019155967  0.046941493 -0.0086295585 0.0060685138  0.019155967 
 1910000 0.0099675332   -3.2760343 0.0099654286   -3.2660688   0.02555523   0.05133673 -0.00022626956 -0.0052656283   0.02555523 
 1920000 0.0096969719    -3.276268 0.0096949244   -3.2665731  0.035718536  0.054442924  0.016994149 -0.0090275533  0.035718536 
 1930000  0.010064861   -3.2761187  0.010062736   -3.2660559  0.026666649  0.049882963 0.0034503349 -0.0065225377  0.026666649 
 1940000 0.0097742694   -3.2761105 0.0097722056   -3.2663383  0.034955122  0.054496149  0.015414095 -0.0083682669  0.034955122 
 1950000   0.01012775   -3.2761896  0.010125611   -3.2660639  0.026043476  0.051272386 0.00081456524 -0.00097188135  0.026043476 
 1960000 0.0099859527   -3.2761116 0.0099838442   -3.2661277  0.027371152  0.051804688  0.002937615 -0.0037201799  0.027371152 
 1970000  0.010018143   -3.2761725  0.010016027   -3.2661565  0.031311075  0.053414628 0.0092075221 0.0070841687  0.031311075 
 1980000  0.010174636   -3.2760399  0.010172488   -3.2658674  0.033642219   0.05502683  0.012257607 0.0055781512  0.033642219 
 1990000 0.0098861683   -3.2763182 0.0098840808   -3.2664341  0.036289292   0.05520395  0.017374635 0.0050951678  0.036289292 
 2000000  0.010098763   -3.2758203  0.010096631   -3.2657237  0.020438167  0.048784075 -0.0079077405 0.0083168181  0.020438167 
 2010000 0.0099555347   -3.2762082 0.0099534326   -3.2662547  0.012054185  0.044137124 -0.020028753 0.0088231601  0.012054185 
 2020000   0.01015465   -3.2760416  0.010152506   -3.2658891 0.0079419211  0.041927678 -0.026043836 0.0029616392 0.0079419211 
 2030000 0.0098913898   -3.2760802 0.0098893012   -3.2661909  0.020220149  0.047487788  -0.00704749 -0.0013519183  0.020220149 
 2040000  0.010054303   -3.2760084   0.01005218   -3.2659563  0.029639117  0.052995462 0.0062827713  -0.00351852  0.029639117 
 2050000  0.010117108   -3.2762526  0.010114972   -3.2661376  0.026789162  0.050220222 0.0033581021 0.00069742609  0.026789162 
 2060000  0.010094581   -3.2763172   0.01009245   -3.2662247  0.023543119  0.049213317 -0.0021270797 -0.0033847782  0.023543119 
 2070000 0.0098526898    -3.276118 0.0098506095   -3.2662674  0.021428586  0.047208221 -0.004351049 0.0029704776  0.021428586 
 2080000  0.010027165   -3.2762934  0.010025048   -3.2662683  0.033740935  0.053404135  0.014077735 -0.00013775043  0.033740935 
 2090000 0.0098076056   -3.2758108 0.0098055347   -3.2660053  0.029507411  0.052655866 0.0063589555 -0.0031806355  0.029507411 
 2100000 0.0098996329   -3.2760798 0.0098975426   -3.2661823  0.023567776  0.049278174 -0.002142622 -0.0045393736  0.023567776 
 2110000  0.010079649   -3.2760548  0.010077521   -3.2659773  0.022726892  0.049611148 -0.0041573641 -0.0036555921  0.022726892 
 2120000  0.010240977    -3.276223  0.010238814   -3.2659842  0.028605425  0.051751131 0.0054597184 -0.0009025526  0.028605425 
 2130000 0.0099877585   -3.2761017 0.0099856495   -3.2661161  0.020159481  0.047360303 -0.0070413407 -0.0042548375  0.020159481 
 2140000 0.0098170489   -3.2758273 0.0098149761   -3.2660123  0.037379742  0.057024622  0.017734863 -0.00058868994  0.037379742 
 2150000 0.0098941569   -3.2759609 0.0098920677   -3.2660688  0.026353224  0.051231357 0.0014750922  0.004193248  0.026353224 
 2160000  0.010161397   -3.2761827  0.010159251   -3.2660234  0.030604896  0.052599255 0.0086105376 -0.0046422512  0.030604896 
 2170000  0.010008352    -3.276049  0.010006239   -3.2660428  0.043040626  0.059612057  0.026469195 -0.0034853602  0.043040626 
 2180000  0.010201733   -3.2763333  0.010199579   -3.2661338  0.029231699  0.051536423 0.0069269754 -0.0087021359  0.029231699 
 2190000 0.0099923111   -3.2756744 0.0099902013   -3.2656842  0.037286364  0.057663896  0.016908832 -0.0022515533  0.037286364 
 2200000 0.0099507248    -3.275923 0.0099486237   -3.2659743  0.031932439  0.054806548 0.0090583295  0.002754677  0.031932439 
 2210000  0.010166365   -3.2760891  0.010164218   -3.2659249   0.02098228  0.048643113 -0.0066785529 0.0027049746   0.02098228 
 2220000 0.0098874019   -3.2759817 0.0098853142   -3.2660964  0.021652741  0.048420551 -0.0051150696 0.0043229753  0.021652741 
 2230000  0.010065881   -3.2764593  0.010063756   -3.2663956  0.018610334  0.045697376 -0.0084767079 -0.0022402519  0.018610334 
 2240000  0.010223753   -3.2758748  0.010221594   -3.2656532    0.0277274  0.052370859 0.0030839419 -0.0027753058    0.0277274 
 2250000  0.010092313   -3.2758774  0.010090182   -3.2657872  0.024779294  0.051184161 -0.0016255728 -0.0033720677  0.024779294 
 2260000  0.010021439   -3.2762156  0.010019323   -3.2661963  0.028241304  0.052598609 0.0038839996 -0.0053465287  0.028241304 
 2270000 0.0099018159   -3.2761106 0.0098997251   -3.2662108  0.025067078  0.050021898 0.00011225731 0.0027060539  0.025067078 
 2280000 0.0099656494   -3.2761064 0.0099635452   -3.2661429  0.024722468  0.050208646 -0.00076370914 0.0063653942  0.024722468 
 2290000  0.010092468   -3.2761792  0.010090337   -3.2660888  0.025952297  0.050126577  0.001778016 0.0096649625  0.025952297 
 2300000 0.0098897819   -3.2759365 0.0098876937   -3.2660488  0.032184214  0.055109158  0.009259269  0.011447147  0.032184214 
 2310000 0.0099596277   -3.2760139 0.0099575248   -3.2660564  0.014003495   0.04505836 -0.017051371 0.0020303277  0.014003495 
 2320000  0.010349774   -3.2760464  0.010347588   -3.2656988  0.021882096  0.049329315 -0.0055651222 -0.0081308583  0.021882096 
 2330000 0.0099442754   -3.2758448 0.0099421757   -3.2659026  0.018769712  0.047575871 -0.010036447 -0.00081584027  0.018769712 
 2340000 0.0099086009   -3.2762001 0.0099065087   -3.2662936    0.0308769  0.052418396 0.0093354048 -0.0038219935    0.0308769 
 2350000 0.0098851378   -3.2760497 0.0098830505   -3.2661667  0.025489463  0.051048459 -6.9532559e-05 -0.0028723095  0.025489463 
 2360000  0.010042347   -3.2761705  0.010040227   -3.2661303  0.023438816  0.049010616 -0.0021329835 -0.00099878977  0.023438816 
 2370000  0.010005492   -3.2760263  0.010003379    -3.266023  0.027966142  0.052180337 0.0037519457 0.0053041328  0.027966142 
 2380000  0.010037786   -3.2760687  0.010035667    -3.266033  0.032399973  0.054521918  0.010278027 -0.00090667543  0.032399973 
 2390000  0.010084854   -3.2760746  0.010082724   -3.2659919  0.032104372  0.052893666  0.011315078 0.0038861312  0.032104372 
 2400000  0.010029523   -3.2760827  0.010027406   -3.2660553  0.030854129  0.052733994 0.0089742636 -0.0051235289  0.030854129 
 2410000 0.0099767243   -3.2762272 0.0099746177   -3.2662525  0.031461434  0.052158223  0.010764646 -0.0059001304  0.031461434 
 2420000  0.010157302    -3.275951  0.010155157   -3.2657958  0.031625525  0.054472274 0.0087787771 0.0016073631  0.031625525 
 2430000   0.01002116   -3.2761827  0.010019044   -3.2661636  0.026500282  0.050196374 0.0028041902 0.0012623863  0.026500282 
 2440000 0.0099497609   -3.2759962   0.00994766   -3.2660485   0.02267348   0.05004862 -0.0047016602 -0.0087915932   0.02267348 
 2450000  0.010169298   -3.2760641  0.010167151    -3.265897  0.024231213  0.050491732 -0.0020293063 -0.0019359618  0.024231213 
 2460000 0.0098936836    -3.276116 0.0098915946   -3.2662244  0.034722698  0.054819744  0.014625651 -0.007193592  0.034722698 
 2470000  0.010014897   -3.2758862  0.010012783   -3.2658734  0.032236898   0.05471229 0.0097615053 -0.0039490936  0.032236898 
 2480000  0.009957864   -3.2761826 0.0099557614   -3.2662269   0.03661092  0.055098267  0.018123573 0.0012070036   0.03661092 
 2490000 0.0099582076   -3.2761645  0.009956105   -3.2662084  0.018533272  0.046819257 -0.0097527137 -0.0093215518  0.018533272 
 2500000 0.0099424642   -3.2760697 0.0099403649   -3.2661293  0.021412428  0.048610834 -0.0057859786 -0.003427307  0.021412428 
 2510000  0.010168036   -3.2759895  0.010165889   -3.2658236  0.036017647  0.056152158  0.015883137 -0.0029391762  0.036017647 
 2520000 0.0097061204   -3.2759903 0.0097040709   -3.2662862  0.021427168  0.049325168 -0.0064708319 -0.0035688907  0.021427168 
 2530000  0.010231555   -3.2761795  0.010229395   -3.2659501  0.020139943   0.04787285 -0.0075929637 -0.011836705  0.020139943 
 2540000  0.010173118   -3.2762011   0.01017097   -3.2660301  0.028959855  0.052225999 0.0056937113 -0.0096907983  0.028959855 
 2550000 0.0099769155   -3.2762045 0.0099748089   -3.2662297  0.037251405   0.05516267  0.019340141 -0.0056712521  0.037251405 
 2560000  0.010068777    -3.275753  0.010066651   -3.2656864  0.034980999  0.056007558   0.01395444 -0.0034182592  0.034980999 
 2570000  0.010113082   -3.2757731  0.010110946   -3.2656622  0.028361633   0.05166573 0.0050575358 0.0019649685  0.028361633 
 2580000 0.0098470946   -3.2759342 0.0098450154   -3.2660892  0.027444699  0.052490837 0.0023985606 -0.0058517071  0.027444699 
 2590000 0.0099405287   -3.2758791 0.0099384297   -3.2659407  0.018595965   0.04718986 -0.0099979308 -0.0058328477  0.018595965 
 2600000 0.0098294324   -3.2761401 0.0098273569   -3.2663127  0.020926884   0.04834604 -0.0064922719  0.003319341  0.020926884 
 2610000  0.010218768   -3.2761574   0.01021661   -3.2659408  0.021487694  0.048370572 -0.0053951826 0.0032546389  0.021487694 
 2620000  0.010155066   -3.2761506  0.010152922   -3.2659977  0.035046341  0.056583451   0.01350923 0.0020664201  0.035046341 
 2630000 0.0098202403   -3.2760003 0.0098181668   -3.2661822  0.026847508   0.05092944  0.002765576 -0.0018555417  0.026847508 
 2640000  0.010052107   -3.2760508  0.010049984   -3.2660008  0.017363677  0.046896429 -0.012169075 -0.0022474817  0.017363677 
 2650000  0.010094843   -3.2759779  0.010092711   -3.2658852  0.012705182  0.043726503 -0.018316139 0.0032970723  0.012705182 
 2660000  0.010079539   -3.2762299  0.010077411   -3.2661525  0.023660103  0.049979205 -0.0026589995 0.0066414096  0.023660103 
 2670000  0.010160075   -3.2762321   0.01015793   -3.2660742   0.02305012  0.048581219 -0.002480979 -0.0008657787   0.02305012 
 2680000 0.0098392537   -3.2762282 0.0098371761    -3.266391  0.025717671  0.049228403 0.0022069389 0.0048272779  0.025717671 
 2690000  0.010376568   -3.2760229  0.010374377   -3.2656485  0.020744752  0.048465978 -0.0069764744 -0.00070951692  0.020744752 
 2700000 0.0096601647   -3.2761402  0.009658125    -3.266482  0.048922439  0.063111907  0.034732971 0.00015312986  0.048922439 
 2710000 0.0098549082   -3.2760143 0.0098528273   -3.2661614  0.025285655  0.051701428 -0.0011301172 0.0039163162  0.025285655 
 2720000 0.0099712697   -3.2760443 0.0099691643   -3.2660751  0.024786992  0.049751889 -0.00017790399 0.0005850167  0.024786992 
 2730000  0.010056213   -3.2761385   0.01005409   -3.2660844  0.029003629  0.052328029 0.0056792303  0.010391388  0.029003629 
 2740000 0.0099717537   -3.2760009 0.0099696482   -3.2660312  0.028233299  0.051112098 0.0053545007 0.0027721293  0.028233299 
 2750000 0.0097311272   -3.2759813 0.0097290725   -3.2662523  0.023300838   0.04877905 -0.0021773742 0.0014784538  0.023300838 
 2760000  0.010006742   -3.2759069  0.010004629   -3.2659023  0.032542395  0.056097374 0.0089874163 -0.00015595378  0.032542395 
 2770000 0.0098918128    -3.276134 0.0098897241   -3.2662442  0.026957218  0.051224244 0.0026901928 0.0013498348  0.026957218 
 2780000 0.0099459249   -3.2760956 0.0099438249   -3.2661518  0.027160153  0.050610693 0.0037096131 0.0051561883  0.027160153 
 2790000 0.0099359985   -3.2761053 0.0099339005   -3.2661714   0.01465137   0.04502757  -0.01572483 0.0048739863   0.01465137 
 2800000 0.0098670992   -3.2760336 0.0098650158   -3.2661686  0.023939744   0.05092059 -0.0030411021 0.0027554644  0.023939744 
 2810000  0.010062735   -3.2758384   0.01006061   -3.2657778  0.033218938   0.05538528  0.011052596 0.0076564308  0.033218938 
 2820000  0.010159289   -3.2760628  0.010157144   -3.2659057  0.039037082  0.056319428  0.021754737 0.0011340893  0.039037082 
 2830000  0.010190966   -3.2760019  0.010188814   -3.2658131  0.019245457  0.047699419 -0.0092085043 -0.00099359723  0.019245457 
 2840000  0.010050973   -3.2760167  0.010048851   -3.2659679  0.027321432  0.052066366 0.0025764981 0.0013436444  0.027321432 
 2850000  0.010103008   -3.2760154  0.010100875   -3.2659146  0.029329025  0.052590534 0.0060675163 0.0090156821  0.029329025 
 2860000  0.010012737   -3.2757301  0.010010622   -3.2657195   0.02774073  0.052563826 0.0029176343  0.006277159   0.02774073 
 2870000  0.010010401   -3.2758519  0.010008287   -3.2658436  0.031001898  0.053736571 0.0082672259  0.015548489  0.031001898 
 2880000  0.010192293    -3.276023  0.010190141   -3.2658329  0.017897814  0.046794245 -0.010998618 0.0046478961  0.017897814 
 2890000 0.0099896387   -3.2763951 0.0099875295   -3.2664075  0.018244729  0.045100628 -0.0086111704 0.0039340102  0.018244729 
 2900000   0.01011388   -3.2758753  0.010111745   -3.2657636   0.02627244  0.051537198 0.0010076816 0.0068328365   0.02627244 
 2910000  0.010048801   -3.2758458  0.010046679   -3.2657991  0.031306872  0.054518014 0.0080957296  0.004368043  0.031306872 
 2920000  0.010086457   -3.2763626  0.010084327   -3.2662783  0.029903138  0.051204963 0.0086013131 -0.0018659795  0.029903138 
 2930000 0.0098979946   -3.2763055 0.0098959046   -3.2664096  0.028941414  0.051168564 0.0067142637 -0.0031524661  0.028941414 
 2940000   0.01015385   -3.2763363  0.010151706   -3.2661846  0.018972221  0.046149782 -0.0082053393 0.0076753332  0.018972221 
 2950000 0.0097614472   -3.2761399 0.0097593861   -3.2663806  0.015167993  0.045940939 -0.015604952 -0.00098089625  0.015167993 
 2960000  0.010140349   -3.2758885  0.010138208   -3.2657502  0.039465007  0.057877714  0.021052299 -0.00043290075  0.039465007 
 2970000  0.010147991   -3.2761795  0.010145848   -3.2660337  0.034745947  0.054546055   0.01494584 -0.0041914483  0.034745947 
 2980000 0.0099074761   -3.2761415 0.0099053841   -3.2662361  0.040193942  0.058678158  0.021709726 0.00061907774  0.040193942 
 2990000 0.0097121872   -3.2761761 0.0097101365    -3.266466    0.0438623  0.059909394  0.027815206 -0.00023931398    0.0438623 
 3000000  0.010056376   -3.2760771  0.010054253   -3.2660228  0.032020003  0.053963227  0.010076779 0.00019528757  0.032020003 
 3010000 0.0099068357   -3.2760886 0.0099047439   -3.2661839  0.024296148  0.049083901 -0.00049160566 -0.011893618  0.024296148 
 3020000 0.0098517668   -3.2759882 0.0098496866   -3.2661385  0.018706753  0.047126762 -0.0097132566 -0.0042419825  0.018706753 
 3030000  0.010049202   -3.2760172  0.010047081   -3.2659701  0.016671177  0.045949825 -0.012607472 -0.0044596632  0.016671177 
 3040000  0.010171001   -3.2763567  0.010168854   -3.2661879   0.01570592  0.044652978 -0.013241138 -0.0055600683   0.01570592 
 3050000  0.010068422    -3.276096  0.010066296   -3.2660297  0.018077918  0.046243138 -0.010087303 0.0015527802  0.018077918 
 3060000 0.0098829401   -3.2759691 0.0098808533   -3.2660882  0.027329547  0.051895073 0.0027640206  0.002216114  0.027329547 
 3070000 0.0099228999   -3.2758658 0.0099208047    -3.265945  0.027943591  0.051648563 0.0042386193 0.00043025074  0.027943591 
 3080000  0.010039512   -3.2761018  0.010037392   -3.2660644  0.030317724  0.052948765  0.007686683 -0.0034826664  0.030317724 
 3090000 0.0097882289   -3.2760733 0.0097861621   -3.2662871  0.033744522  0.054613637  0.012875406 -0.00099732272  0.033744522 
 3100000  0.010148611   -3.2759618  0.010146468   -3.2658154  0.032197285  0.053943824  0.010450746 0.0016301378  0.032197285 
 3110000  0.010032235   -3.2757238  0.010030116   -3.2656937  0.037804615  0.057207115  0.018402116 -0.0067452641  0.037804615 
 3120000  0.009691994   -3.2761558 0.0096899476   -3.2664658   0.02686861  0.051798037 0.0019391833 -0.009761814   0.02686861 
 3130000 0.0099765303   -3.2760218 0.0099744238   -3.2660474  0.029781127  0.053398567 0.0061636873 -0.0078733022  0.029781127 
 3140000  0.009887512   -3.2763636 0.0098854242   -3.2664782  0.031186022  0.052499374 0.0098726698 -0.010045252  0.031186022 
 3150000  0.010265134   -3.2760801  0.010262966   -3.2658171  0.036488623  0.054871919  0.018105327 -0.016955701  0.036488623 
 3160000 0.0099984371   -3.2760227  0.009996326   -3.2660264  0.031930204  0.054685362 0.0091750459 -0.012643506  0.031930204 
 3170000  0.010136625    -3.275917  0.010134485   -3.2657825  0.023639581  0.050050888 -0.0027717248 -0.0049120692  0.023639581 
 3180000  0.010024225   -3.2760952  0.010022108   -3.2660731  0.032289772  0.053937927  0.010641617  0.000924179  0.032289772 
 3190000   0.01002296   -3.2759887  0.010020844   -3.2659679  0.024668955  0.050628034 -0.0012901238 0.00031689716  0.024668955 
 3200000  0.010432651   -3.2761202  0.010430449   -3.2656897  0.029576479  0.052575544 0.0065774135 0.0028929415  0.029576479 
 3210000  0.010049127   -3.2759621  0.010047005   -3.2659151  0.036717964  0.057013263  0.016422666 0.00044278795  0.036717964 
 3220000   0.01005687   -3.2760875  0.010054747   -3.2660327   0.03390448  0.054453712  0.013355247 7.4236113e-06   0.03390448 
 3230000  0.010059734   -3.2758944   0.01005761   -3.2658367  0.022574419  0.050264162 -0.0051153238 -0.0023572608  0.022574419 
 3240000  0.010027404   -3.2756557  0.010025286   -3.2656304  0.016340501  0.045931899 -0.013250897 -0.0010507782  0.016340501 
 3250000  0.010127769   -3.2761755   0.01012563   -3.2660499  0.029666214  0.052490949 0.0068414786 -0.000834266  0.029666214 
 3260000  0.010092008   -3.2759666  0.010089877   -3.2658767  0.027546417  0.051873051  0.003219783 -0.0033195097  0.027546417 
 3270000 0.0099890748   -3.2760723 0.0099869656   -3.2660853  0.028029117  0.051560807 0.0044974266 -0.0044573893  0.028029117 
 3280000  0.010028604   -3.2760251  0.010026487   -3.2659986  0.024559489  0.049775309 -0.00065632987 -0.0082451161  0.024559489 
 3290000   0.00995349   -3.2763451 0.0099513884   -3.2663937  0.015284176  0.043610193 -0.013041841 -0.0070503003  0.015284176 
 3300000  0.010067257   -3.2759975  0.010065132   -3.2659323  0.014337445  0.044882381 -0.016207491 -0.010700563  0.014337445 
 3310000  0.010096631   -3.2761339    0.0100945   -3.2660394  0.016522339  0.045149041 -0.012104364 -0.007498907  0.016522339 
 3320000 0.0099770231   -3.2759278 0.0099749164   -3.2659529  0.031811158  0.053439857  0.010182458 -0.0036291075  0.031811158 
 3330000 0.0097755317    -3.276174 0.0097734676   -3.2664005  0.033836932  0.054396761  0.013277104 0.0075570806  0.033836932 
 3340000  0.010210526     -3.27617   0.01020837   -3.2659616  0.018353732  0.046233051 -0.0095255869  0.001326367  0.018353732 
 3350000   0.01014078   -3.2760586  0.010138639     -3.26592  0.012264116  0.045020843 -0.020492612 0.00022960817  0.012264116 
 3360000  0.010057393   -3.2758461  0.010055269   -3.2657909  0.012133834   0.04500397 -0.020736303 -0.0030615807  0.012133834 
 3370000  0.010069899   -3.2759409  0.010067773   -3.2658731  0.027137045  0.050861647 0.0034124433 0.0024127693  0.027137045 
 3380000 0.0097726229    -3.276065 0.0097705594   -3.2662945  0.024591685   0.04949987 -0.00031650028 0.0051280008  0.024591685 
 3390000 0.0099322241   -3.2760767 0.0099301269   -3.2661466  0.026922577  0.050697183 0.0031479713 0.0038694314  0.026922577 
 3400000  0.010131424    -3.276111  0.010129284   -3.2659817  0.034795456   0.05512242  0.014468492 -0.0010355417  0.034795456 
 3410000  0.010069926   -3.2762807    0.0100678   -3.2662129  0.041023946  0.057464391  0.024583501 0.0035759184  0.041023946 
 3420000  0.010123225   -3.2761333  0.010121088   -3.2660122  0.023624923  0.050736814 -0.003486969 -0.00081586218  0.023624923 
 3430000 0.0096970534   -3.2758254 0.0096950059   -3.2661304  0.021564046  0.048931687 -0.0058035943 -0.0066359397  0.021564046 
 3440000  0.010109239    -3.276014  0.010107104   -3.2659069  0.022425574  0.049171635 -0.0043204865 -0.0072689518  0.022425574 
 3450000 0.0099168856    -3.275939 0.0099147916   -3.2660242  0.019660658  0.047562357 -0.0082410408 0.0011682454  0.019660658 
 3460000 0.0097683204   -3.2764117 0.0097662579   -3.2666454  0.016940824  0.045155896 -0.011274249 4.9423984e-05  0.016940824 
 3470000 0.0099755242   -3.2759825 0.0099734178   -3.2660091  0.027745721  0.052329188 0.0031622545 0.0012667347  0.027745721 
 3480000 0.0098260372   -3.2759375 0.0098239624   -3.2661135  0.023965385  0.049945948 -0.0020151781 -0.0046444973  0.023965385 
 3490000  0.010093939   -3.2759122  0.010091808   -3.2658204  0.015458922  0.045271461 -0.014353616 0.0069354908  0.015458922 
 3500000   0.01002831   -3.2761517  0.010026193   -3.2661255  0.025501942  0.049884731 0.0011191534 0.0090071864  0.025501942 
 3510000  0.010279069   -3.2762152  0.010276898   -3.2659383  0.026046401  0.051195848 0.00089695395 0.0040665316  0.026046401 
 3520000 0.0098411239    -3.276133 0.0098390459   -3.2662939  0.014014289  0.044335996 -0.016307418 -0.00032899242  0.014014289 
 3530000  0.009893436   -3.2760881  0.009891347   -3.2661967    0.0202819   0.04814448 -0.0075806796 -0.004948778    0.0202819 
 3540000 0.0099561247   -3.2762488 0.0099540224   -3.2662948  0.019504506  0.047157624 -0.008148611 -0.00087630882  0.019504506 
 3550000 0.0099999197   -3.2761756 0.0099978083   -3.2661778  0.022433729  0.048888537 -0.0040210796 -0.0091020873  0.022433729 
 3560000 0.0098480119   -3.2760656 0.0098459325   -3.2662196  0.022289444  0.049012237 -0.0044333486 -0.0041255629  0.022289444 
 3570000 0.0099127739   -3.2759373 0.0099106808   -3.2660266  0.029488964  0.052971744 0.0060061836 0.0036121599  0.029488964 
 3580000  0.010146091   -3.2760174  0.010143949   -3.2658735  0.022165737  0.048513222 -0.0041817489 -0.0021589956  0.022165737 
 3590000  0.009974965   -3.2762247 0.0099728588   -3.2662518  0.017895186  0.045954002 -0.010163629 -0.0010825674  0.017895186 
 3600000 0.0099514644   -3.2763147 0.0099493632   -3.2663653  0.014963151  0.044377276 -0.014450973 -0.00034774494  0.014963151 
 3610000  0.010237456   -3.2762529  0.010235295   -3.2660176  0.026798507  0.050347081 0.0032499319 -0.0047736999  0.026798507 
 3620000  0.010069509    -3.276154  0.010067383   -3.2660866  0.027338444  0.051274369 0.0034025201 0.00015190343  0.027338444 
 3630000  0.010198807   -3.2759347  0.010196654   -3.2657381  0.035066826  0.055769759  0.014363892 -0.0029664111  0.035066826 
 3640000  0.010066467   -3.2759457  0.010064341   -3.2658813  0.030672849  0.055106742 0.0062389566 -0.0054547428  0.030672849 
 3650000 0.0097291973   -3.2760168  0.009727143   -3.2662896   0.03146955  0.052492308  0.010446792 -0.0087752125   0.03146955 
 3660000  0.009971229    -3.275938 0.0099691236   -3.2659689  0.019782114  0.048616094 -0.0090518651 -0.0041036466  0.019782114 
 3670000 0.0098631063   -3.2760587 0.0098610238   -3.2661976   0.01424257  0.044623936 -0.016138796 -0.0072757648   0.01424257 
 3680000 0.0098548699   -3.2761331 0.0098527891   -3.2662803  0.014742004  0.044246067 -0.014762058 -0.0054252535  0.014742004 
 3690000  0.010114383    -3.276267  0.010112248   -3.2661547  0.014997064  0.044720421 -0.014726293 -0.003404171  0.014997064 
 3700000 0.0099676214       -3.276 0.0099655168   -3.2660345  0.016992907  0.045897541 -0.011911726 0.0028739519  0.016992907 
 3710000 0.0098518271   -3.2762237 0.0098497469    -3.266374  0.028193841  0.051840236 0.0045474459 0.0024319119  0.028193841 
 3720000   0.01005792   -3.2762787  0.010055796   -3.2662229  0.029404883  0.051937331 0.0068724348 -0.0044614904  0.029404883 
 3730000   0.01011739   -3.2761057  0.010115254   -3.2659905  0.019624394  0.046964988 -0.0077162008 0.0088269887  0.019624394 
 3740000 0.0099808338   -3.2759846 0.0099787264   -3.2660059   0.03008855  0.052310897 0.0078662036 0.0055144818   0.03008855 
 3750000 0.0098830461   -3.2762141 0.0098809593   -3.2663331  0.030365446  0.052135792 0.0085951001 0.0025746652  0.030365446 
 3760000   0.01001775   -3.2761326  0.010015635    -3.266117  0.023428233   0.04951449 -0.0026580241 -0.0084331628  0.023428233 
 3770000 0.0099631897   -3.2761278  0.009961086   -3.2661667  0.017494269  0.046384493 -0.011395955 -0.00081823776  0.017494269 
 3780000 0.0099851298   -3.2760909 0.0099830215   -3.2661079  0.019609494  0.047549483 -0.008330495 -0.0016827131  0.019609494 
 3790000  0.010133702   -3.2761315  0.010131563       -3.266  0.037950704  0.056519752  0.019381656 -0.0051296984  0.037950704 
 3800000  0.009669995   -3.2761246 0.0096679532   -3.2664567  0.027910945  0.050725171 0.0050967193 -0.0077441875  0.027910945 
 3810000 0.0099547226   -3.2761509 0.0099526207   -3.2661982  0.024761717  0.050305197 -0.0007817632 -0.0059899659  0.024761717 
 3820000  0.010082604    -3.276088  0.010080475   -3.2660075  0.019613578  0.047155519 -0.007928363 -0.003707053  0.019613578 
 3830000 0.0098518522   -3.2760841  0.009849772   -3.2662344  0.027386869  0.050365773 0.0044079655 -0.002745818  0.027386869 
 3840000 0.0098639514    -3.276111 0.0098618687   -3.2662491  0.029635399  0.051965093 0.0073057058 -0.0013787268  0.029635399 
 3850000 0.0099579208   -3.2759969 0.0099558182    -3.266041  0.035400678  0.055279829  0.015521527 -0.005589853  0.035400678 
 3860000 0.0098986311   -3.2758213  0.009896541   -3.2659248  0.034764843  0.055359389  0.014170297 -0.0037089787  0.034764843 
 3870000 0.0099456457   -3.2765006 0.0099435456   -3.2665571   0.02225475  0.046879598 -0.002370098 0.00032545451   0.02225475 
 3880000   0.01005376   -3.2760659  0.010051637   -3.2660143  0.028625226  0.052527509 0.0047229425 0.0016702863  0.028625226 
 3890000 0.0097724155   -3.2759874 0.0097703521   -3.2662171  0.022605423  0.049331573 -0.0041207262 -0.006204239  0.022605423 
 3900000  0.010006594   -3.2759526  0.010004481   -3.2659481  0.035296213   0.05437564  0.016216787 -0.0054963265  0.035296213 
 3910000 0.0097381915   -3.2758255 0.0097361353   -3.2660894   0.03278546  0.054060958  0.011509962 -0.0037945829   0.03278546 
 3920000 0.0099983307   -3.2760598 0.0099962196   -3.2660636  0.029195866  0.053287796 0.0051039357 -0.002599694  0.029195866 
 3930000  0.010096919   -3.2760242  0.010094787   -3.2659294    0.0286803  0.052838226  0.004522373 0.00061507189    0.0286803 
 3940000 0.0099940989   -3.2759232 0.0099919886   -3.2659312   0.02977531  0.052557388 0.0069932327 0.0074327217   0.02977531 
 3950000 0.0099428996   -3.2758805 0.0099408001   -3.2659397  0.028719238  0.052744428 0.0046940475 0.00098835194  0.028719238 
 3960000  0.010097873   -3.2762353  0.010095741   -3.2661395  0.024503011   0.04936429 -0.00035826746 -0.004171028  0.024503011 
 3970000  0.010247846   -3.2760796  0.010245682    -3.265834  0.020801978  0.048644163 -0.007040207 -0.0072069768  0.020801978 
 3980000 0.0098855931   -3.2758097 0.0098835058   -3.2659261  0.020389971  0.049632597 -0.0088526552 -0.0064341752  0.020389971 
 3990000  0.010323114   -3.2760548  0.010320934   -3.2657339  0.026663334  0.052128922 0.0011977466 -0.0085422796  0.026663334 
 4000000 0.0097419477   -3.2760841 0.0097398907   -3.2663442  0.019650542  0.047440904 -0.0081398201 -0.0032874297  0.019650542 
 4010000 0.0096759795   -3.2761698 0.0096739365   -3.2664958 0.0088284869  0.041334452 -0.023677478 -0.0017792345 0.0088284869 
 4020000  0.009807063   -3.2760513 0.0098049923   -3.2662463  0.014859537  0.043643323 -0.013924248 -0.00085735767  0.014859537 
 4030000  0.010008316   -3.2760709  0.010006203   -3.2660647  0.021441289  0.048378942 -0.0054963653 -0.0055784989  0.021441289 
 4040000  0.010023931   -3.2760067  0.010021815   -3.2659849  0.015613426  0.045562043 -0.014335192 -0.00073919414  0.015613426 
 4050000 0.0098598287   -3.2761723 0.0098577468   -3.2663146  0.035057361  0.055433128  0.014681595 -0.0047401421  0.035057361 
 4060000   0.01022565   -3.2758732  0.010223491   -3.2656497  0.028118462  0.052754509  0.003482415 -0.011564807  0.028118462 
 4070000 0.0099253377   -3.2759458  0.009923242   -3.2660226  0.029962971  0.054489418 0.0054365239   -0.0105025  0.029962971 
 4080000  0.010290941   -3.2757931  0.010288768   -3.2655043  0.020298929  0.048036401 -0.0074385424 -0.0084711239  0.020298929 
 4090000  0.010211242   -3.2761578  0.010209086   -3.2659487   0.02820948   0.05154056 0.0048783999 -0.0035724975   0.02820948 
 4100000  0.010107386   -3.2758173  0.010105251    -3.265712  0.030723965  0.053244174 0.0082037566 -0.0031041511  0.030723965 
 4110000  0.010344739   -3.2760192  0.010342555   -3.2656767  0.022111621  0.049124822 -0.0049015801 -0.0028474529  0.022111621 
 4120000 0.0099555647   -3.2761761 0.0099534626   -3.2662226  0.024724545  0.049744418 -0.00029532834 0.0033496373  0.024724545 
 4130000  0.010199339   -3.2762943  0.010197186   -3.2660972  0.020326823  0.047482771 -0.0068291247 -0.0032674232  0.020326823 
 4140000  0.010074514   -3.2761622  0.010072387   -3.2660898  0.029443952   0.05201932 0.0068685837 -6.3271971e-05  0.029443952 
 4150000  0.010004951   -3.2760056  0.010002838   -3.2660027  0.033980306  0.055091232   0.01286938 0.00085873404  0.033980306 
 4160000  0.010169736   -3.2760862  0.010167589   -3.2659186  0.030475834  0.053849989 0.0071016796 -0.0019961587  0.030475834 
 4170000  0.010094995   -3.2761043  0.010092863   -3.2660114  0.026919248  0.051845475 0.0019930214 -0.00066358379  0.026919248 
 4180000 0.0099782104   -3.2761715 0.0099761035   -3.2661954  0.021414598  0.049031456 -0.0062022602 0.00089414868  0.021414598 
 4190000  0.009979791   -3.2760086 0.0099776838   -3.2660309  0.010562186  0.042892818 -0.021768447 -0.0051273815  0.010562186 
 4200000 0.0099774544   -3.2761208 0.0099753477   -3.2661455  0.019021691  0.046878043 -0.0088346617 -0.0058979027  0.019021691 
 4210000  0.010134813   -3.2758598  0.010132673   -3.2657271  0.021875919  0.050425501 -0.0066736624 -0.0048983717  0.021875919 
 4220000  0.010145758   -3.2761749  0.010143616   -3.2660313  0.029353556  0.052016326 0.0066907854 -0.0039805169  0.029353556 
 4230000 0.0099061041   -3.2762451 0.0099040124    -3.266341  0.032796611  0.052999567  0.012593655 -0.0038312326  0.032796611 
 4240000 0.0099329855   -3.2758521 0.0099308882   -3.2659212  0.024399556  0.051212608 -0.002413497 -0.0086038441  0.024399556 
 4250000  0.010107551   -3.2759745  0.010105416   -3.2658691   0.02536823  0.051778446 -0.0010419861 -0.0072933707   0.02536823 
 4260000  0.010115393   -3.2762501  0.010113257   -3.2661368  0.025722725  0.050080398 0.0013650529 -0.00091913699  0.025722725 
 4270000 0.0099525403   -3.2758531 0.0099504389   -3.2659027   0.03674298  0.056496136  0.016989825 9.4433557e-05   0.03674298 
 4280000 0.0099321383   -3.2760793 0.0099300411   -3.2661492  0.042919969  0.059925163  0.025914775 -0.0028034359  0.042919969 
 4290000 0.0099207963   -3.2762537 0.0099187016   -3.2663349  0.036991765  0.055167526  0.018816004 -0.011660249  0.036991765 
 4300000  0.010003596   -3.2759453  0.010001483   -3.2659438  0.033251561  0.054958004  0.011545118 -0.010186439  0.033251561 
 4310000 0.0099119581   -3.2762067 0.0099098652   -3.2662968  0.029826088  0.052600309 0.0070518663 -0.0054123764  0.029826088 
 4320000  0.010151817   -3.2761624  0.010149673   -3.2660127  0.021789866  0.047899838 -0.004320107 -0.0039452616  0.021789866 
 4330000 0.0097854903   -3.2761613 0.0097834241   -3.2663779  0.023769418  0.048917316 -0.0013784806 -0.0014449572  0.023769418 
 4340000  0.010106861   -3.2759449  0.010104727   -3.2658402  0.022816864  0.049395371 -0.0037616436 -0.0078608706  0.022816864 
 4350000 0.0097938826    -3.276068 0.0097918146   -3.2662762   0.02123204  0.047835262 -0.0053711826 -0.0077683517   0.02123204 
 4360000 0.0099799227   -3.2758986 0.0099778155   -3.2659208  0.023743805  0.051521666 -0.0040340562 -0.0023761927  0.023743805 
 4370000  0.010177006   -3.2763533  0.010174857   -3.2661784  0.021435511  0.047873214 -0.0050021927 -0.0024036985  0.021435511 
 4380000   0.01006271   -3.2760944  0.010060585   -3.2660338  0.014089375  0.045058668 -0.016879918 -3.8418708e-05  0.014089375 
 4390000 0.0098752599    -3.276028 0.0098731747   -3.2661549  0.014908226  0.046027912  -0.01621146 -0.00061426993  0.014908226 
 4400000 0.0099013493   -3.2762701 0.0098992586   -3.2663708  0.019630074  0.046936788 -0.0076766409 -0.0020524658  0.019630074 
 4410000   0.01010226   -3.2760975  0.010100127   -3.2659974  0.026449873  0.050974579 0.0019251671 -7.8014687e-05  0.026449873 
 4420000 0.0098987642   -3.2761953 0.0098966741   -3.2662986  0.026957788  0.051233761 0.0026818143 -0.0010592151  0.026957788 
 4430000 0.0099577266   -3.2762002  0.009955624   -3.2662446    0.0191415  0.046307643 -0.0080246419 -0.0022023547    0.0191415 
 4440000 0.0099718783   -3.2761297 0.0099697727     -3.26616  0.025126487  0.050896228 -0.00064325436 -0.0012229278  0.025126487 
 4450000  0.010099756   -3.2762214  0.010097624   -3.2661238  0.022939242  0.048939811 -0.0030613264 -0.0031109434  0.022939242 
 4460000 0.0099153726   -3.2760647  0.009913279   -3.2661514  0.030983473  0.053785496   0.00818145 0.00022445408  0.030983473 
 4470000  0.010274979   -3.2759525  0.010272809   -3.2656797  0.022213686   0.04885597 -0.0044285989 -0.0014321056  0.022213686 
 4480000  0.010110551   -3.2760501  0.010108416   -3.2659416  0.024456973  0.049431316 -0.00051737026 -0.00048164796  0.024456973 
 4490000 0.0097874544    -3.275963 0.0097853878   -3.2661776   0.02922897  0.052981183 0.0054767583 -0.00012291215   0.02922897 
 4500000 0.0099451857   -3.2759835 0.0099430857   -3.2660404  0.028356206  0.052436303  0.004276108 -0.0041037242  0.028356206 
 4510000 0.0098361751   -3.2760445 0.0098340982   -3.2662104  0.016047187   0.04705914 -0.014964767 0.00043620059  0.016047187 
 4520000 0.0097258067   -3.2760719 0.0097237531   -3.2663481  0.017542288  0.046485074 -0.011400497 0.0027126694  0.017542288 
 4530000 0.0099442235   -3.2760997 0.0099421238   -3.2661575  0.020430868  0.047473261 -0.0066115241 0.0040242844  0.020430868 
 4540000 0.0098612189   -3.2760672 0.0098591367   -3.2662081  0.025120836  0.050722259 -0.00048058648 0.0015128758  0.025120836 
 4550000  0.010060061   -3.2758497  0.010057937   -3.2657918  0.022705646   0.05002564 -0.0046143485 -0.0002250866  0.022705646 
 4560000 0.0099759229    -3.275846 0.0099738165   -3.2658722  0.026361568  0.051882874 0.00084026283 -0.0014162595  0.026361568 
 4570000  0.010092266   -3.2760032  0.010090135   -3.2659131  0.027789531   0.05223064 0.0033484217 -0.0036980184  0.027789531 
 4580000 0.0098865098   -3.2758901 0.0098844223   -3.2660057  0.017658514  0.047768924 -0.012451897 -0.0052145574  0.017658514 
 4590000  0.010003864   -3.2762329  0.010001752   -3.2662312  0.029365209  0.051512436 0.0072179828 -0.0030723077  0.029365209 
 4600000 0.0099347887   -3.2760418  0.009932691   -3.2661091  0.024836587  0.049254137 0.00041903633 -0.0097814733  0.024836587 
 4610000 0.0099320996   -3.2759662 0.0099300025   -3.2660362  0.013897857  0.044147316 -0.016351602 -0.0084154521  0.013897857 
 4620000 0.0098729306   -3.2761173  0.009870846   -3.2662464  0.027399879  0.051465597   0.00333416 -0.013514769  0.027399879 
 4630000 0.0096804077   -3.2758768 0.0096783637   -3.2661984  0.022598169   0.04906599 -0.0038696526 -0.011350916  0.022598169 
 4640000  0.010345465   -3.2761717   0.01034328   -3.2658284  0.034996243  0.054565463  0.015427022 -0.0063291682  0.034996243 
 4650000  0.010221033   -3.2760971  0.010218875   -3.2658782   0.03145639  0.054210822 0.0087019569 -0.003454179   0.03145639 
 4660000 0.0099862583   -3.2757789 0.0099841497   -3.2657948  0.018583058  0.048237536 -0.011071419 -0.0085216955  0.018583058 
 4670000 0.0099620507   -3.2761071 0.0099599473   -3.2661472  0.024098857  0.050947079 -0.002749364 -0.0047810263  0.024098857 
 4680000  0.010143759   -3.2759573  0.010141617   -3.2658157  0.020509704  0.048382127 -0.0073627194 -0.0025749609  0.020509704 
 4690000  0.010084882   -3.2760093  0.010082752   -3.2659265 0.0059514082  0.040526137 -0.028623321 -0.0082776949 0.0059514082 
 4700000  0.010041004   -3.2760335  0.010038884   -3.2659946  0.014415233  0.045066282 -0.016235815 -0.0072290298  0.014415233 
 4710000  0.010068781   -3.2759225  0.010066655   -3.2658558  0.011860702   0.04447805 -0.020756647 -0.0082752312  0.011860702 
 4720000 0.0096817927   -3.2761962 0.0096797484   -3.2665164  0.016124379  0.046351508 -0.014102749 -0.0079081211  0.016124379 
 4730000    0.0100067   -3.2763128  0.010004587   -3.2663082  0.024525069  0.049728534 -0.00067839519 -0.0045822169  0.024525069 
 4740000 0.0099952087   -3.2760198 0.0099930983   -3.2660267  0.026023765   0.05176455 0.00028297996 -0.010671798  0.026023765 
 4750000  0.010116274   -3.2760575  0.010114138   -3.2659434  0.024431787  0.049207511 -0.00034393657 -0.0028206586  0.024431787 
 4760000   0.01037933   -3.2763432  0.010377138   -3.2659661  0.036457546  0.055506576  0.017408516 0.0045515346  0.036457546 
 4770000  0.010181934   -3.2761205  0.010179784   -3.2659407  0.020404214  0.046461905 -0.0056534778 -0.0080271238  0.020404214 
 4780000 0.0098129096   -3.2760093 0.0098108376   -3.2661984  0.025483176  0.049617903 0.0013484479 -0.0061430221  0.025483176 
 4790000  0.010093839   -3.2762318  0.010091708   -3.2661401  0.028795165  0.051058547 0.0065317837 -0.012854085  0.028795165 
 4800000  0.010153131   -3.2760788  0.010150987   -3.2659278  0.036458461  0.056799316  0.016117605 -0.0006303505  0.036458461 
 4810000 0.0098113453   -3.2759811 0.0098092736   -3.2661718  0.022067263  0.048332719 -0.0041981935 -0.0062297727  0.022067263 
 4820000  0.010134929   -3.2758544  0.010132789   -3.2657216    0.0315527  0.053923268 0.0091821328 -0.0049385046    0.0315527 
 4830000  0.010108232   -3.2761098  0.010106098   -3.2660037  0.023523938  0.048928025 -0.0018801487 -0.00067631494  0.023523938 
 4840000 0.0099344857   -3.2762842 0.0099323881   -3.2663518  0.016613144  0.046170754 -0.012944467 0.0028438049  0.016613144 
 4850000 0.0099339425   -3.2760245  0.009931845   -3.2660927    0.0229861  0.049142182 -0.0031699827 0.0030175558    0.0229861 
 4860000 0.0097595014   -3.2761933 0.0097574407   -3.2664359  0.023107772  0.048808232 -0.0025926872 0.0058052654  0.023107772 
 4870000  0.010139829   -3.2758198  0.010137688   -3.2656821  0.017611322  0.046099902 -0.010877257 0.00097221804  0.017611322 
 4880000  0.010050416   -3.2757282  0.010048293     -3.26568  0.014142753  0.047460588 -0.019175082 -0.0015047597  0.014142753 
 4890000  0.010154522   -3.2760558  0.010152378   -3.2659034  0.018597832  0.046732731 -0.0095370682 0.0017340401  0.018597832 
 4900000  0.010106984   -3.2762021   0.01010485   -3.2660972  0.020909058    0.0473165 -0.0054983852 -0.00044779152  0.020909058 
 4910000 0.0098298234   -3.2761695 0.0098277479   -3.2663418  0.016989387  0.046304306 -0.012325531 0.0072538079  0.016989387 
 4920000 0.0099389424   -3.2760951 0.0099368438   -3.2661582  0.014470492  0.045275419 -0.016334434 -0.00081732403  0.014470492 
 4930000 0.0098990488   -3.2760187 0.0098969586   -3.2661218  0.026147372   0.05163555 0.00065919416 0.0063865839  0.026147372 
 4940000  0.010121035   -3.2759799  0.010118898    -3.265861  0.022201849  0.049406318 -0.0050026204 -0.0015310396  0.022201849 
 4950000 0.0099042305   -3.2761424 0.0099021392   -3.2662402  0.018822099  0.047384617 -0.0097404201 -0.0028058612  0.018822099 
 4960000  0.010024334   -3.2759132  0.010022217    -3.265891  0.019680589  0.048393589 -0.0090324122 -0.0032790598  0.019680589 
 4970000 0.0099375989   -3.2760494 0.0099355006   -3.2661139  0.016137235  0.045634476 -0.013360005  0.010225258  0.016137235 
 4980000  0.010279073   -3.2761115  0.010276902   -3.2658346  0.025474901  0.049950834 0.00099896802 0.0019730353  0.025474901 
 4990000 0.0098706818    -3.275931 0.0098685976   -3.2660624  0.028304294  0.051899284 0.0047093032 0.0078882121  0.028304294 
 5000000 0.0098291398   -3.2760408 0.0098270644   -3.2662138  0.032465738  0.053884577  0.011046898  0.007477283  0.032465738 
 5010000 0.0098375517   -3.2761151 0.0098354745   -3.2662796  0.026849618  0.051178795 0.0025204408 0.0053690958  0.026849618 
 5020000 0.0097943097   -3.2761489 0.0097922416   -3.2663566   0.01150927  0.044347233 -0.021328692 -0.0043441448   0.01150927 
 5030000 0.0099727623   -3.2759089 0.0099706566   -3.2659382  0.022059271  0.048745609 -0.0046270661 -0.0024652355  0.022059271 
 5040000 0.0099997152   -3.2760624 0.0099976038   -3.2660648  0.023808691  0.050208153 -0.0025907716 0.0082548664  0.023808691 
 5050000 0.0097880282   -3.2760087 0.0097859615   -3.2662227  0.025139626  0.050699328 -0.000420075 0.0057943882  0.025139626 
 5060000  0.009803148   -3.2759859 0.0098010781   -3.2661848  0.021169817  0.048481078 -0.0061414436 0.0083209686  0.021169817 
 5070000 0.0099309015   -3.2759904 0.0099288046   -3.2660616   0.02840047  0.052265827 0.0045351131 0.0044471645   0.02840047 
 5080000 0.0097932579   -3.2762735   0.00979119   -3.2664823   0.02412389   0.04945681 -0.0012090305 0.0048651125   0.02412389 
 5090000 0.0099768826   -3.2763073  0.009974776   -3.2663326  0.020540656   0.04782488 -0.0067435678  0.010387129  0.020540656 
 5100000 0.0099697678   -3.2761193 0.0099676627   -3.2661516  0.020477749  0.048040534 -0.0070850372 0.0059808228  0.020477749 
 5110000  0.010060628   -3.2759673  0.010058504   -3.2659088  0.021832027   0.04929093 -0.0056268768  0.010086061  0.021832027 
 5120000 0.0099028107   -3.2760794 0.0099007198   -3.2661787  0.026586228  0.050629709 0.0025427469 0.0087339865  0.026586228 
 5130000  0.010028032   -3.2760571  0.010025915   -3.2660312  0.023318781  0.049392909 -0.0027553467 0.0085154553  0.023318781 
 5140000  0.010257801   -3.2760798  0.010255635   -3.2658242   0.02534901  0.049770796 0.00092722358  0.010657662   0.02534901 
 5150000 0.0098446878   -3.2761892 0.0098426091   -3.2663466  0.032318155  0.053275006  0.011361303  0.011116302  0.032318155 
 5160000  0.009865973    -3.276091 0.0098638898   -3.2662272  0.032386154  0.053646845  0.011125464 0.0079246061  0.032386154 
 5170000  0.010020592   -3.2761573  0.010018476   -3.2661388  0.027871878  0.051323609 0.0044201459 -0.0010967181  0.027871878 
 5180000  0.010291036   -3.2760449  0.010288863   -3.2657561  0.022738451  0.049125434 -0.0036485312 0.00060566306  0.022738451 
 5190000 0.0097932053   -3.2759048 0.0097911375   -3.2661137  0.010024113  0.042356682 -0.022308455 -3.7427659e-05  0.010024113 
 5200000  0.010057836   -3.2760083  0.010055713   -3.2659526  0.019758247  0.047391531 -0.0078750363 0.0080939797  0.019758247 
 5210000  0.010034243   -3.2759037  0.010032124   -3.2658716  0.025442125  0.050791265 9.2985409e-05 0.0081613513  0.025442125 
 5220000 0.0097139441   -3.2760229  0.009711893   -3.2663111  0.018504499  0.046330186 -0.0093211885 0.0018570032  0.018504499 
 5230000  0.009677597   -3.2755959 0.0096755536   -3.2659204  0.019777648  0.048545293 -0.0089899982 0.0045757917  0.019777648 
 5240000  0.010013302   -3.2762577  0.010011188   -3.2662465   0.02519678  0.049760631 0.00063292871 0.0028255727   0.02519678 
 5250000 0.0098388293   -3.2760504 0.0098367519   -3.2662136  0.011415595  0.043266138 -0.020434948   0.00234409  0.011415595 
 5260000  0.010204245   -3.2761862   0.01020209   -3.2659841  0.026335753  0.050065814 0.0026056915 -0.0033680883  0.026335753 
 5270000 0.0099080595   -3.2759367 0.0099059675   -3.2660308  0.018923827  0.048047992 -0.010200338 0.0051548173  0.018923827 
 5280000  0.010092962   -3.2760191  0.010090831   -3.2659283   0.01995958  0.047067177 -0.0071480168 -0.0043166299   0.01995958 
 5290000 0.0099088149   -3.2759536 0.0099067227   -3.2660468  0.025445403  0.050312497 0.00057830853 -0.0074601577  0.025445403 
 5300000  0.010074792   -3.2761307  0.010072664    -3.266058  0.014610824  0.045119191 -0.015897542 0.0005918725  0.014610824 
 5310000 0.0097195977   -3.2762735 0.0097175454   -3.2665559  0.035577392  0.054451095  0.016703689 -0.0018618221  0.035577392 
 5320000  0.010064143   -3.2761048  0.010062018   -3.2660428  0.021374565  0.049299823 -0.0065506927 0.0058051641  0.021374565 
 5330000  0.010163304   -3.2757497  0.010161158   -3.2655886  0.035763923  0.056762158  0.014765688 -0.0028372107  0.035763923 
 5340000 0.0098748262   -3.2761917 0.0098727412    -3.266319  0.018069663  0.047140868 -0.011001543 0.0023062275  0.018069663 
 5350000 0.0099353699   -3.2761649  0.009933272   -3.2662316  0.019019081  0.047409622 -0.0093714596 0.0033284728  0.019019081 
 5360000  0.010111355   -3.2760787   0.01010922   -3.2659695  0.025864325   0.04928602 0.0024426299 0.0010163463  0.025864325 
 5370000 0.0098321412   -3.2760731 0.0098300651   -3.2662431  0.019132846  0.047785361 -0.0095196698 0.00063996471  0.019132846 
 5380000  0.010081231   -3.2762175  0.010079102   -3.2661384  0.021365223  0.047782922 -0.0050524766 0.0067722766  0.021365223 
 5390000  0.010147237   -3.2757185  0.010145095   -3.2655734  0.028264789  0.054155926 0.0023736526 -0.00047082938  0.028264789 
 5400000 0.0099486986   -3.2761499 0.0099465979   -3.2662033  0.015691826  0.044797662 -0.013414009 0.0025195317  0.015691826 
 5410000  0.010261146   -3.2760803   0.01025898   -3.2658214  0.015022898  0.045669975 -0.015624178 0.0029185861  0.015022898 
 5420000  0.010038086   -3.2761112  0.010035966   -3.2660753  0.019287073  0.046736271 -0.0081621258  -0.01131276  0.019287073 
 5430000  0.010058559   -3.2759045  0.010056436   -3.2658481  0.022143247  0.049159963 -0.0048734686 0.0026849416  0.022143247 
 5440000 0.0097286209   -3.2762538 0.0097265667   -3.2665273  0.022728178  0.048104532 -0.0026481761  0.001310713  0.022728178 
 5450000  0.009904899   -3.2760663 0.0099028076   -3.2661635  0.031540612  0.053603251 0.0094779726 0.0019674193  0.031540612 
 5460000  0.010066108    -3.275799  0.010063983    -3.265735  0.023528015  0.050071763 -0.003015733 -0.00049519369  0.023528015 
 5470000 0.0098027264   -3.2759077 0.0098006566   -3.2661071  0.020555086  0.049022012 -0.0079118401 7.3005057e-05  0.020555086 
 5480000  0.010250463   -3.2760031  0.010248298   -3.2657548  0.024911411  0.050100969 -0.00027814806 0.0026709502  0.024911411 
 5490000  0.009803677   -3.2760424  0.009801607   -3.2662408  0.033078718  0.054609377  0.011548059 0.0082218636  0.033078718 
 5500000  0.010018586   -3.2759039   0.01001647   -3.2658874  0.036337473  0.056036152  0.016638794 -0.00095251915  0.036337473 
 5510000 0.0098824553   -3.2761087 0.0098803686   -3.2662283  0.016104437  0.045181235  -0.01297236 0.00094860535  0.016104437 
 5520000 0.0098449855   -3.2760511 0.0098429068   -3.2662082  0.015649122  0.046340851 -0.015042607 -0.0058424699  0.015649122 
 5530000 0.0098099171   -3.2759748 0.0098078458    -3.266167  0.022682362  0.048448219 -0.0030834949 -0.0034275117  0.022682362 
 5540000 0.0099156118   -3.2759519 0.0099135181   -3.2660384  0.022278175  0.048857226 -0.0043008767 -0.0042553822  0.022278175 
 5550000 0.0099891329   -3.2761243 0.0099870237   -3.2661373  0.027040592  0.050326366 0.0037548183 -0.0029379932  0.027040592 
 5560000  0.010219511   -3.2756876  0.010217353   -3.2654702   0.01927146  0.049108777 -0.010565857 0.0012827505   0.01927146 
 5570000  0.010009892   -3.2759194  0.010007778   -3.2659116  0.023922781  0.050213328 -0.0023677664 0.0035885018  0.023922781 
 5580000 0.0097882185   -3.2760227 0.0097861517   -3.2662366  0.034353527  0.055499492  0.013207562 0.0032498123  0.034353527 
 5590000  0.010208438   -3.2757841  0.010206282   -3.2655778  0.026719585   0.05282142 0.00061774992 0.0043919638  0.026719585 
 5600000 0.0099598425   -3.2760025 0.0099577395   -3.2660448  0.026308614  0.050543257 0.0020739716 0.00090045101  0.026308614 
 5610000  0.009915949   -3.2760275 0.0099138553   -3.2661137   0.01590244  0.045874209 -0.014069329 -0.0011693438   0.01590244 
 5620000 0.0099555909   -3.2761622 0.0099534888   -3.2662087  0.014473618  0.045095811 -0.016148574 -0.0019956925  0.014473618 
 5630000  0.010019756   -3.2762741   0.01001764   -3.2662565  0.016062749  0.045018203 -0.012892706 -0.0061775619  0.016062749 
 5640000 0.0099500519   -3.2757413  0.009947951   -3.2657934  0.025903531  0.050910455 0.00089660767 -0.0048397593  0.025903531 
 5650000  0.010014717   -3.2757888  0.010012602   -3.2657762  0.010715477  0.043581779 -0.022150824 -0.0099292913  0.010715477 
 5660000  0.010041736   -3.2760998  0.010039616   -3.2660602  0.028113694  0.051842151 0.0043852374 -0.0057848747  0.028113694 
 5670000 0.0098895377   -3.2760587 0.0098874496   -3.2661713  0.028004327  0.052828051 0.0031806035 0.00033369135  0.028004327 
 5680000  0.010010685   -3.2763233  0.010008572   -3.2663147  0.030213155  0.052396744  0.008029566 0.00031627142  0.030213155 
 5690000  0.010182072   -3.2759314  0.010179922   -3.2657515  0.039722181  0.057952849  0.021491513 0.0036409826  0.039722181 
 5700000 0.0099444042   -3.2761833 0.0099423044    -3.266241  0.033433284  0.053962576  0.012903993 -0.0055600791  0.033433284 
 5710000  0.010004025   -3.2763336  0.010001912   -3.2663317  0.031002541  0.052766037 0.0092390457 -0.0035835736  0.031002541 
 5720000  0.010025015   -3.2761278  0.010022898   -3.2661049  0.016205338  0.045522072 -0.013111396 0.0040302882  0.016205338 
 5730000  0.010153536   -3.2760624  0.010151392    -3.265911  0.029299591  0.052525422 0.0060737592 -6.9300601e-06  0.029299591 
 5740000  0.010089283   -3.2761191  0.010087153    -3.266032  0.019532898  0.046906401 -0.0078406045 -0.0051894438  0.019532898 
 5750000  0.010135173   -3.2762365  0.010133033   -3.2661035   0.02943034  0.051668021 0.0071926603 -0.0099994907   0.02943034 
 5760000 0.0098466812   -3.2762134  0.009844602   -3.2663688  0.018024003  0.046735296  -0.01068729 -0.0070659023  0.018024003 
 5770000  0.010120169   -3.2760832  0.010118032   -3.2659651  0.034288852  0.054796645  0.013781059 0.0012640807  0.034288852 
 5780000  0.010057076   -3.2763021  0.010054952   -3.2662472  0.020673371  0.047293864 -0.0059471212 0.0036428189  0.020673371 
 5790000  0.010083372   -3.2760539  0.010081243   -3.2659726  0.023074435  0.049377485 -0.0032286148 -0.0020550534  0.023074435 
 5800000  0.010028108   -3.2760245   0.01002599   -3.2659985   0.02417825  0.049698308 -0.0013418078 0.0011665486   0.02417825 
 5810000  0.010156549   -3.2762279  0.010154404   -3.2660735    0.0354467  0.054844468  0.016048931 -0.0019885315    0.0354467 
 5820000 0.0098563486   -3.2761555 0.0098542675   -3.2663012  0.026663031  0.050437443 0.0028886185 0.0067703755  0.026663031 
 5830000 0.0099883816   -3.2763668 0.0099862726   -3.2663805  0.025059012  0.049699469 0.00041855436 0.0009506406  0.025059012 
 5840000   0.01002502   -3.2759791  0.010022903   -3.2659562  0.029293716  0.051789134 0.0067982988 0.0017359466  0.029293716 
 5850000 0.0096924441   -3.2762209 0.0096903975   -3.2665305  0.027461685   0.05104588 0.0038774903 0.0017464246  0.027461685 
 5860000 0.0098994298    -3.276147 0.0098973396   -3.2662496   0.01971158  0.048487142 -0.0090639825 0.0017085855   0.01971158 
 5870000  0.009902232   -3.2760329 0.0099001411   -3.2661328  0.023600624  0.051475906 -0.0042746582 -0.0036914243  0.023600624 
 5880000 0.0098862168   -3.2760591 0.0098841293    -3.266175  0.032329781  0.054160943   0.01049862 0.0053652176  0.032329781 
 5890000  0.009920088   -3.2763095 0.0099179934   -3.2663915  0.032271903  0.053406636   0.01113717 -0.0010947275  0.032271903 
 5900000  0.010031582    -3.276179  0.010029464   -3.2661495  0.028341346  0.051620322 0.0050623711 0.0078445454  0.028341346 
 5910000  0.010080473   -3.2759475  0.010078344   -3.2658691  0.026135124  0.051671463 0.00059878549 0.0016049208  0.026135124 
 5920000  0.010225765   -3.2762346  0.010223606    -3.266011  0.029121244  0.051335105 0.0069073824 0.0033734868  0.029121244 
 5930000 0.0098655228   -3.2762789 0.0098634397   -3.2664155  0.013034169  0.042460942 -0.016392605 0.0053440321  0.013034169 
 5940000 0.0098048603   -3.2763474   0.00980279   -3.2665446  0.022707096  0.048830048 -0.0034158563  0.012687225  0.022707096 
 5950000  0.010140064   -3.2760795  0.010137923   -3.2659415  0.030606429  0.053477584 0.0077352752 0.0072507851  0.030606429 
 5960000 0.0098523539   -3.2758909 0.0098502736   -3.2660406  0.014720184  0.045992922 -0.016552553 -0.00083542694  0.014720184 
 5970000 0.0099066898   -3.2760938  0.009904598   -3.2661892  0.023295446  0.049920033 -0.0033291413 0.0013928598  0.023295446 
 5980000  0.010114021    -3.276046  0.010111885   -3.2659341  0.024504791  0.050851537 -0.0018419549 0.0025012295  0.024504791 
 5990000 0.0098230992   -3.2761316 0.0098210251   -3.2663106  0.016307673  0.045685027 -0.013069682 0.0079268808  0.016307673 
 6000000  0.010033578   -3.2760954  0.010031459   -3.2660639  0.015947062  0.045734567 -0.013840443  0.011265895  0.015947062 
 6010000  0.009720366   -3.2760905 0.0097183136   -3.2663722  0.018193216  0.045803792 -0.0094173593 0.0046565672  0.018193216 
 6020000  0.010132876   -3.2760812  0.010130736   -3.2659504  0.014755077  0.044882565 -0.015372412   0.01173427  0.014755077 
 6030000  0.010054954   -3.2759694  0.010052831   -3.2659166  0.023004357  0.049381944 -0.0033732293  0.011313457  0.023004357 
 6040000  0.009832835   -3.2759612 0.0098307588   -3.2661304   0.01505047  0.045125191  -0.01502425  0.011061749   0.01505047 
 6050000 0.0099728358   -3.2760806 0.0099707301   -3.2661098 0.0087831075  0.041546796 -0.023980581  0.013719784 0.0087831075 
 6060000   0.01001802   -3.2762211  0.010015905   -3.2662052  0.018182746  0.046229143 -0.0098636512  0.012747493  0.018182746 
[...]
 9490000  0.010104604   -3.2761938  0.010102471   -3.2660914  0.014708098  0.044218401 -0.014802205 -0.0039106394  0.014708098 
 9500000 0.0099702801    -3.276162 0.0099681749   -3.2661938  0.027109627  0.052353989 0.0018652657 -0.0090539134  0.027109627 
 9510000 0.0098897861   -3.2761239 0.0098876979   -3.2662362  0.026923035  0.051044918 0.0028011514 -0.0044579417  0.026923035 
 9520000  0.010005978   -3.2759211  0.010003865   -3.2659172  0.034052859  0.055837402  0.012268316 0.0010090117  0.034052859 
 9530000  0.010123595    -3.276209  0.010121458   -3.2660876  0.018768296   0.04588062 -0.0083440286 -0.0074989598  0.018768296 
 9540000 0.0099979426   -3.2762042 0.0099958316   -3.2662083 0.0055870342  0.039963859 -0.028789791 0.0086156174 0.0055870342 
 9550000  0.010262253   -3.2762533  0.010260086   -3.2659933  0.017494552  0.047122143 -0.012133039 0.0076469697  0.017494552 
 9560000 0.0097773542   -3.2758189 0.0097752897   -3.2660437   0.02103978  0.048889954 -0.0068103929 0.00029922191   0.02103978 
 9570000 0.0097448318   -3.2760341 0.0097427742   -3.2662913  0.014819721  0.045913494 -0.016274053  0.004008532  0.014819721 
 9580000  0.010065276   -3.2761103  0.010063151   -3.2660471  0.026088874  0.050216577 0.0019611704  0.005578367  0.026088874 
 9590000 0.0098997952   -3.2762337 0.0098977049    -3.266336  0.038016632  0.057639875  0.018393389 0.0042501211  0.038016632 
 9600000 0.0099652515   -3.2758575 0.0099631474   -3.2658944  0.026775731  0.051593279 0.0019581833  0.013670368  0.026775731 
 9610000 0.0099195188   -3.2760167 0.0099174243   -3.2660993  0.022061677  0.047998927 -0.0038755736  0.013455096  0.022061677 
 9620000 0.0099875992   -3.2760667 0.0099854904   -3.2660812  0.036992938   0.05673624  0.017249635 0.0061069095  0.036992938 
 9630000 0.0098739666   -3.2760576 0.0098718817   -3.2661857   0.03783821  0.056831881  0.018844539  0.003891032   0.03783821 
 9640000 0.0096985755   -3.2762744 0.0096965276   -3.2665778  0.026393555  0.049697344 0.0030897653 -0.00026433468  0.026393555 
 9650000  0.010015341   -3.2760154  0.010013226   -3.2660022  0.022389329  0.048278938 -0.0035002804 -0.0061535154  0.022389329 
 9660000 0.0098720768   -3.2761794 0.0098699923   -3.2663094  0.019720954  0.047645729 -0.0082038201 -0.0083090552  0.019720954 
 9670000  0.010004655   -3.2761022  0.010002543   -3.2660996  0.015782329  0.044564099 -0.012999441 -0.0047921849  0.015782329 
 9680000 0.0099171049   -3.2760093 0.0099150109   -3.2660942  0.030984147  0.053571692 0.0083966019  0.010089622  0.030984147 
 9690000 0.0099787797   -3.2760272 0.0099766726   -3.2660505  0.026445629  0.050896921 0.0019943368 0.0096218782  0.026445629 
 9700000  0.010012226   -3.2759307  0.010010112   -3.2659206  0.026520595  0.051856092 0.0011850976 0.00028447389  0.026520595 
 9710000 0.0099939668   -3.2761053 0.0099918566   -3.2661135  0.034781836  0.054620335  0.014943336 0.0079845027  0.034781836 
 9720000  0.010188638    -3.276059  0.010186487   -3.2658725  0.028007264  0.051697365 0.0043171629 0.0074490928  0.028007264 
 9730000 0.0098617576   -3.2762042 0.0098596753   -3.2663445  0.027171757   0.05012195 0.0042215646  0.018025963  0.027171757 
 9740000 0.0099078508   -3.2761211 0.0099057588   -3.2662154  0.028782099  0.051328962 0.0062352366 0.0095846294  0.028782099 
 9750000  0.010250615   -3.2763267  0.010248451   -3.2660782  0.025094138  0.049233426 0.00095485026  0.010592698  0.025094138 
 9760000 0.0099536677   -3.2761595  0.009951566   -3.2662079  0.015777292   0.04548563 -0.013931046 0.0032202125  0.015777292 
 9770000  0.010251209   -3.2758753  0.010249045   -3.2656263  0.031927018  0.053806052  0.010047985   0.01452328  0.031927018 
 9780000 0.0098423706   -3.2762153 0.0098402924   -3.2663751    0.0252584  0.050223979 0.00029282156   0.01597504    0.0252584 
 9790000 0.0099907558    -3.276104 0.0099886462   -3.2661153  0.030970467  0.053109111 0.0088318235  0.014397228  0.030970467 
 9800000 0.0099976492   -3.2759874 0.0099955382   -3.2659919   0.02620045  0.051621115 0.00077978413   0.01884721   0.02620045 
 9810000 0.0099135114   -3.2761865 0.0099114182   -3.2662751  0.015642956   0.04576127 -0.014475358  0.018658716  0.015642956 
 9820000 0.0099044908    -3.275979 0.0099023994   -3.2660766  0.022727072  0.049292946 -0.0038388029  0.014762738  0.022727072 
 9830000 0.0098175997   -3.2760055 0.0098155268     -3.26619  0.023871996  0.051279075 -0.0035350832  0.017733501  0.023871996 
 9840000  0.010069652   -3.2761994  0.010067526   -3.2661319  0.034538072  0.055098023  0.013978122  0.015579458  0.034538072 
 9850000   0.01010775   -3.2760645  0.010105616   -3.2659588  0.028203076  0.051591783 0.0048143686  0.016938558  0.028203076 
 9860000  0.010065544     -3.27599  0.010063419   -3.2659266  0.022901456  0.050056408 -0.0042534971 0.0088373927  0.022901456 
 9870000  0.010079934   -3.2760071  0.010077805   -3.2659293  0.025909978  0.050898703 0.00092125292  0.001442158  0.025909978 
 9880000  0.010009064   -3.2760974  0.010006951   -3.2660905  0.027289002  0.051908171 0.0026698336 0.0046554941  0.027289002 
 9890000  0.010006823   -3.2759774   0.01000471   -3.2659727  0.021982775  0.048075003 -0.0041094528 0.0012509416  0.021982775 
 9900000 0.0098604883   -3.2758353 0.0098584062   -3.2659769  0.012764902    0.0446889 -0.019159095  0.003717793  0.012764902 
 9910000 0.0097929142   -3.2761061 0.0097908465   -3.2663153 0.0092384464  0.041798304 -0.023321411 0.0029095743 0.0092384464 
 9920000  0.010002231   -3.2760376  0.010000119   -3.2660375  0.016842418  0.046151647  -0.01246681 0.0026521998  0.016842418 
 9930000  0.010039638   -3.2759773  0.010037518   -3.2659398  0.025486375  0.051189133 -0.00021638314 0.0072353203  0.025486375 
 9940000 0.0099810406   -3.2760938 0.0099789331   -3.2661149  0.026174247  0.051182841  0.001165653 0.0059672707  0.026174247 
 9950000 0.0099149123   -3.2761727 0.0099128188   -3.2662599  0.023245068  0.049391068 -0.0029009332 -0.0035370992  0.023245068 
 9960000  0.010150553   -3.2760198   0.01014841   -3.2658714  0.011863004  0.044746251 -0.021020244 -0.0028697097  0.011863004 
 9970000  0.010168222   -3.2760793  0.010166075   -3.2659132  0.020096621   0.04814576 -0.0079525181 0.0061235955  0.020096621 
 9980000  0.010040561   -3.2759171  0.010038441   -3.2658786  0.026745232  0.051111942 0.0023785223 -0.0063353864  0.026745232 
 9990000  0.010120555   -3.2763142  0.010118418   -3.2661958  0.023804621  0.049123204 -0.0015139617 3.3335401e-05  0.023804621 
10000000 0.0099315691   -3.2761642 0.0099294721   -3.2662347  0.017366923  0.045910791 -0.011176945 0.0016247554  0.017366923 
10010000   0.01006061   -3.2761604  0.010058486    -3.266102  0.025389529  0.050708728 7.0329991e-05 0.00091998612  0.025389529 
10020000  0.010130998   -3.2761432  0.010128859   -3.2660143  0.019965486  0.047815903 -0.0078849302 0.0022630357  0.019965486 
10030000 0.0096979617   -3.2759267  0.009695914   -3.2662308  0.013369411  0.044687581 -0.017948759 0.0025251171  0.013369411 
10040000  0.010106183   -3.2761953  0.010104049   -3.2660913  0.014194978  0.044395786  -0.01600583 0.0018522345  0.014194978 
10050000 0.0099498407   -3.2758967 0.0099477398    -3.265949  0.018069111  0.047734274 -0.011596052 -0.010167307  0.018069111 
10060000 0.0098888238   -3.2759742 0.0098867358   -3.2660875  0.022187718  0.048632699 -0.0042572631 -0.0064800403  0.022187718 
10070000 0.0099375022   -3.2761264  0.009935404    -3.266191 0.0092313773  0.041770227 -0.023307473 -0.0012376636 0.0092313773 
10080000 0.0099421537   -3.2762033 0.0099400544   -3.2662632  0.018506215    0.0457296 -0.0087171696 0.0025946951  0.018506215 
10090000  0.010184171   -3.2759377  0.010182021   -3.2657557  0.024212588  0.050600084 -0.0021749069 -0.0015624565  0.024212588 
10100000 0.0099726449   -3.2760411 0.0099705391   -3.2660705  0.028778129  0.051445783 0.0061104747 0.0055355251  0.028778129 
10110000 0.0099099184    -3.275985 0.0099078259   -3.2660772  0.026861045  0.051259078  0.002463012 0.00010534373  0.026861045 
10120000  0.010224967   -3.2760272  0.010222808   -3.2658044  0.030908592  0.053503749 0.0083134344 0.0023081455  0.030908592 
10130000  0.010133715   -3.2762223  0.010131575   -3.2660907  0.017702609  0.046738538 -0.011333321 -0.0031931612  0.017702609 
10140000   0.01012856   -3.2761118  0.010126421   -3.2659854  0.015343142  0.045530543 -0.014844259 -0.00048843352  0.015343142 
10150000  0.009962015    -3.276088 0.0099599115   -3.2661281   0.02582009  0.049759224 0.0018809559 -0.0023076628   0.02582009 
10160000 0.0099109895   -3.2762154 0.0099088968   -3.2663065  0.022468009  0.047806283 -0.0028702638 0.0076531628  0.022468009 
10170000  0.009875944   -3.2760457 0.0098738587   -3.2661718  0.027402336  0.051922424 0.0028822482  0.010086359  0.027402336 
10180000 0.0099469172    -3.276038  0.009944817   -3.2660931  0.021833332  0.048935395 -0.0052687322 6.0388813e-05  0.021833332 
10190000  0.010061998   -3.2759099  0.010059874     -3.26585  0.030455974  0.052967868  0.007944081 0.0023204192  0.030455974 
10200000  0.010177487   -3.2760964  0.010175338   -3.2659211  0.015634133  0.044153057 -0.012884791 -0.0016400285  0.015634133 
10210000  0.010083598   -3.2759183  0.010081469   -3.2658368  0.024893093  0.051074542 -0.0012883572 -8.2271192e-06  0.024893093 
10220000 0.0099097047   -3.2759328 0.0099076123   -3.2660252  0.024034067  0.050214305 -0.002146171 0.0018479678  0.024034067 
10230000 0.0099766225   -3.2759547 0.0099745159   -3.2659801  0.022411975  0.049592465 -0.0047685147 0.0090577388  0.022411975 
10240000  0.010089454   -3.2763517  0.010087323   -3.2662644  0.028732989  0.051404428 0.0060615492  0.004936198  0.028732989 
10250000 0.0097673964   -3.2762324  0.009765334   -3.2664671    0.0319541  0.053015679  0.010892522 0.0021327635    0.0319541 
10260000 0.0099005707   -3.2761718 0.0098984802   -3.2662733  0.032421395  0.053452087  0.011390703 0.0052343423  0.032421395 
10270000  0.010169155   -3.2760736  0.010167008   -3.2659066  0.025099316  0.049707251 0.00049138221 -0.0026353489  0.025099316 
10280000  0.010024975    -3.276052  0.010022858   -3.2660292  0.019652312  0.047127296 -0.0078226714 0.0047510787  0.019652312 
10290000  0.010026074   -3.2759966  0.010023957   -3.2659726  0.022357427  0.049412522 -0.0046976678 0.0047881853  0.022357427 
10300000   0.01006564   -3.2759871  0.010063515   -3.2659236  0.015041441  0.045625674 -0.015542791 -0.00085810964  0.015041441 
10310000  0.009801131   -3.2762325 0.0097990615   -3.2664334  0.025550654  0.049822112 0.0012791963 0.0033310876  0.025550654 
10320000  0.010147742   -3.2761117  0.010145599   -3.2659661   0.02217263  0.048225998 -0.0038807379 -0.0022560243   0.02217263 
10330000  0.010109575   -3.2762508   0.01010744   -3.2661434  0.022722242  0.049265134 -0.0038206509 -0.0025732057  0.022722242 
10340000 0.0099179611   -3.2762027 0.0099158669   -3.2662869  0.024561126  0.049584292 -0.00046204058 -0.00045153353  0.024561126 
10350000  0.010270261   -3.2759629  0.010268093   -3.2656948  0.016563946  0.046256326 -0.013128435 0.0020320379  0.016563946 
10360000 0.0096339016   -3.2760988 0.0096318674   -3.2664669  0.026195754  0.051102427 0.0012890813 -0.0016542884  0.026195754 
10370000  0.010065734   -3.2761173  0.010063609   -3.2660537  0.016682588  0.045091679 -0.011726502 -0.0016170716  0.016682588 
10380000 0.0097380169   -3.2761065 0.0097359607   -3.2663705  0.019025003  0.046867569 -0.0088175632 0.0005676104  0.019025003 
10390000  0.010187347   -3.2759198  0.010185196   -3.2657346  0.028125973  0.052777232 0.0034747141 -0.0057986165  0.028125973 
10400000  0.010047124   -3.2760008  0.010045003   -3.2659558   0.02246818  0.049947742 -0.0050113818 -0.0045836603   0.02246818 
10410000  0.010233077   -3.2763158  0.010230917   -3.2660849  0.017039221  0.045924244 -0.011845801  0.001509925  0.017039221 
10420000 0.0096875852   -3.2760218 0.0096855397   -3.2663362  0.025882632  0.051870873 -0.00010560969 0.0072517865  0.025882632 
10430000  0.010036675   -3.2759767  0.010034556   -3.2659421  0.040435468  0.057634776   0.02323616 0.0055536016  0.040435468 
10440000  0.010016258   -3.2761698  0.010014143   -3.2661556  0.028549818   0.05212982 0.0049698155 0.0011205802  0.028549818 
10450000  0.010027339   -3.2760989  0.010025222   -3.2660737  0.031949931  0.052418654  0.011481207 -0.0005721346  0.031949931 
10460000 0.0099708782   -3.2761921 0.0099687729   -3.2662234  0.024984198  0.049796173 0.0001722236 -0.0038084692  0.024984198 
10470000  0.010102397   -3.2764492  0.010100264    -3.266349  0.023435074  0.048133547 -0.001263399 -0.0043680615  0.023435074 
10480000  0.010146437   -3.2762672  0.010144295   -3.2661229  0.016544866  0.045479556 -0.012389825 0.00012444053  0.016544866 
10490000 0.0098747216   -3.2759638 0.0098726366   -3.2660911  0.020289446  0.048398791 -0.0078198983 0.0013043122  0.020289446 
10500000  0.010062057   -3.2760314  0.010059932   -3.2659714  0.026970971  0.050507363 0.0034345784 0.0033740086  0.026970971 
10510000 0.0099571523   -3.2760299 0.0099550498   -3.2660748  0.024357013  0.050194613 -0.0014805867 0.0067059766  0.024357013 
10520000  0.010111997   -3.2761742  0.010109862   -3.2660643  0.024416887  0.049384586 -0.00055081266  0.005789699  0.024416887 
10530000  0.010093491   -3.2760431   0.01009136   -3.2659517  0.015696899  0.045717462 -0.014323663 0.0039065809  0.015696899 
10540000  0.010051261   -3.2761587  0.010049138   -3.2661096  0.025415344  0.050304189 0.00052649868 0.0078981224  0.025415344 
10550000 0.0098964434   -3.2760703 0.0098943537   -3.2661759  0.022898669  0.049369189 -0.0035718515 0.0011782537  0.022898669 
10560000 0.0099805134    -3.276017  0.009978406   -3.2660385  0.032986142  0.053155023   0.01281726 0.0089320174  0.032986142 
10570000  0.009925475   -3.2761175 0.0099233793   -3.2661941    0.0270335  0.050217616 0.0038493832  0.007757718    0.0270335 
10580000  0.010198733    -3.276012   0.01019658   -3.2658154  0.021407691   0.04905504 -0.0062396575 -0.00049034566  0.021407691 
10590000  0.010076671    -3.276341  0.010074543   -3.2662665  0.021796518   0.04762481 -0.0040317739  0.007543338  0.021796518 
10600000  0.010195928   -3.2760273  0.010193775   -3.2658335  0.020294797  0.047857185 -0.0072675914 0.0058781063  0.020294797 
10610000 0.0098598177    -3.276021 0.0098577358   -3.2661633  0.014536898  0.044364333 -0.015290537  0.007063928  0.014536898 
10620000   0.01000304   -3.2761456  0.010000928   -3.2661447  0.019419153  0.047297863 -0.0084595573 0.0049452747  0.019419153 
10630000 0.0098714156   -3.2760558 0.0098693313   -3.2661865  0.014534849  0.045300423 -0.016230725 -0.003079881  0.014534849 
10640000  0.010001267   -3.2758799  0.009999155   -3.2658807  0.030736813  0.054041891 0.0074317346 0.0054859261  0.030736813 
10650000 0.0099508021   -3.2761881  0.009948701   -3.2662394  0.033170428  0.054198636  0.012142219 0.0030232748  0.033170428 
10660000 0.0099137708   -3.2760718 0.0099116775   -3.2661602  0.025034687  0.050187678 -0.00011830419 0.0033742779  0.025034687 
10670000  0.010184833   -3.2761307  0.010182682    -3.265948  0.025590101  0.050018934 0.0011612689 -0.002930953  0.025590101 
10680000  0.010176947   -3.2760815  0.010174799   -3.2659067  0.023763917  0.048603259 -0.001075424 0.00051186781  0.023763917 
10690000  0.010075595   -3.2760154  0.010073467   -3.2659419  0.032176797  0.054595622 0.0097579728 0.00056360967  0.032176797 
10700000  0.010082258   -3.2761661  0.010080129    -3.266086  0.029935582  0.052732977 0.0071381871 -0.0040247079  0.029935582 
10710000 0.0099668742   -3.2759342 0.0099647697   -3.2659694  0.028594916  0.051713031 0.0054768001 -0.002391542  0.028594916 
10720000  0.010022194   -3.2760371  0.010020078    -3.266017  0.031085609   0.05281275 0.0093584684 -0.002896386  0.031085609 
10730000  0.010034955   -3.2760137  0.010032836   -3.2659809   0.02260928  0.049421582 -0.004203021 0.00016396359   0.02260928 
10740000 0.0099444991   -3.2761615 0.0099423993   -3.2662191   0.02237603  0.048222168 -0.0034701073 -0.00023928605   0.02237603 
10750000 0.0099093442   -3.2761978 0.0099072518   -3.2662906  0.028213019  0.051765929   0.00466011 0.0056999369  0.028213019 
10760000 0.0097543881   -3.2758981 0.0097523285   -3.2661457  0.016144353  0.047599839 -0.015311134 -0.0022483757  0.016144353 
10770000  0.010257938   -3.2759538  0.010255772   -3.2656981  0.026770891  0.051799038 0.0017427431 0.0015595439  0.026770891 
10780000  0.010095627   -3.2759122  0.010093495   -3.2658187  0.028594105  0.053679293 0.0035089169 0.0054586364  0.028594105 
10790000 0.0098458666    -3.276124 0.0098437877   -3.2662802 0.0051955405   0.03994721 -0.029556129 0.0023578039 0.0051955405 
10800000 0.0098422046   -3.2761508 0.0098401264   -3.2663107  0.010328497  0.042214747 -0.021557753 -0.0029337068  0.010328497 
10810000 0.0099295641   -3.2760378 0.0099274675   -3.2661104 0.0091469132  0.042467629 -0.024173803  -0.01330723 0.0091469132 
10820000  0.010195851   -3.2759734  0.010193698   -3.2657797  0.024140576  0.050516268 -0.0022351161 -0.0029836101  0.024140576 
10830000 0.0098210583   -3.2761397 0.0098189846   -3.2663207  0.030407348   0.05256482 0.0082498774 -0.00092664232  0.030407348 
10840000 0.0098698223   -3.2759292 0.0098677383   -3.2660615  0.029887664  0.054665086 0.0051102429 -0.0036415155  0.029887664 
10850000 0.0099220701   -3.2760103 0.0099199751   -3.2660904  0.028410587   0.05230503 0.0045161446 -0.0046285806  0.028410587 
10860000 0.0096935316   -3.2760821 0.0096914848   -3.2663907  0.029168181  0.052871599 0.0054647616 0.0040139574  0.029168181 
10870000  0.009956618    -3.276015 0.0099545157   -3.2660605  0.028060051  0.052087483 0.0040326182 0.0019592162  0.028060051 
10880000 0.0098973999   -3.2760355 0.0098953101   -3.2661402  0.020146922  0.047931928 -0.0076380844 0.0058485128  0.020146922 
10890000 0.0099696991   -3.2759912  0.009967594   -3.2660236  0.028357701  0.052414567 0.0043008352 0.00063625129  0.028357701 
10900000  0.010111619   -3.2760551  0.010109483   -3.2659456  0.020433533  0.048051985 -0.007184918 0.00085165697  0.020433533 
10910000 0.0098705351   -3.2758981 0.0098684509   -3.2660296  0.018023902  0.047135741 -0.011087937 -0.0044062815  0.018023902 
10920000 0.0099749057   -3.2759414 0.0099727995   -3.2659686  0.012967791  0.045073676 -0.019138093 -0.0042196123  0.012967791 
10930000 0.0099861107   -3.2760567 0.0099840022   -3.2660727   0.02199413  0.048263431 -0.0042751703 0.00095641695   0.02199413 
10940000 0.0099724953   -3.2762471 0.0099703896   -3.2662767   0.01769851  0.045941942 -0.010544922 -0.0050082272   0.01769851 
10950000 0.0099317284   -3.2757763 0.0099296313   -3.2658467  0.028110255  0.053913693 0.0023068171 -0.0031161915  0.028110255 
10960000 0.0099904519   -3.2761171 0.0099883425   -3.2661287  0.036529247  0.055055089  0.018003405  -0.00105378  0.036529247 
10970000  0.010004333   -3.2759657  0.010002221   -3.2659634   0.04006757  0.057929333  0.022205807 -0.003431693   0.04006757 
10980000 0.0099809683   -3.2758657 0.0099788608   -3.2658868  0.040435203  0.058272684  0.022597723 -0.0095302415  0.040435203 
10990000 0.0099651601   -3.2759271 0.0099630559    -3.265964   0.02572513  0.051794202 -0.00034394262 -0.013131143   0.02572513 
11000000 0.0099232263   -3.2760616  0.009921131   -3.2661405  0.021143108  0.047740168 -0.0054539522 -0.0074053726  0.021143108 
Loop time of 8497.77 on 4 procs for 11000000 steps with 4736 atoms

Pair  time (%) = 5777.44 (67.9877)
Neigh time (%) = 0.0170593 (0.000200751)
Comm  time (%) = 648.299 (7.62905)
Outpt time (%) = 2.49705 (0.0293848)
Other time (%) = 2069.52 (24.3537)

Nlocal:    1184 ave 1184 max 1184 min
Histogram: 4 0 0 0 0 0 0 0 0 0
Nghost:    316 ave 316 max 316 min
Histogram: 4 0 0 0 0 0 0 0 0 0
Neighs:    17407.8 ave 17477 max 17338 min
Histogram: 1 0 0 0 1 1 0 0 0 1

Total # of neighbors = 69631
Ave neighs/atom = 14.7025
Neighbor list builds = 2
Dangerous builds = 0
