
        3584 atoms

4 atom types

0.0         8.8055200 xlo xhi
0.0         8.8055200 ylo yhi
      -17.434040       56.660628 zlo zhi

Masses

1 1.000000
2 1.000000
3 1.000000
4 1.000000

Atoms
 
      1 2    0.000000    0.000000    0.000000
      2 2    0.550345    0.550345    0.778305
      3 1    0.000000    0.000000    1.556611
      4 1    0.550345    0.550345    2.334916
      5 1    0.000000    0.000000    3.113221
      6 1    0.550345    0.550345    3.891527
      7 1    0.000000    0.000000    4.669832
      8 1    0.550345    0.550345    5.448138
      9 1    0.000000    0.000000    6.226443
     10 1    0.550345    0.550345    7.004748
     11 1    0.000000    0.000000    7.783054
     12 1    0.550345    0.550345    8.561359
     13 1    0.000000    0.000000    9.339664
     14 1    0.550345    0.550345   10.117970
     15 1    0.000000    0.000000   10.896275
     16 1    0.550345    0.550345   11.674580
     17 1    0.000000    0.000000   12.452886
     18 1    0.550345    0.550345   13.231191
     19 1    0.000000    0.000000   14.009497
     20 1    0.550345    0.550345   14.787802
     21 1    0.000000    0.000000   15.566107
     22 1    0.550345    0.550345   16.344413
     23 1    0.000000    0.000000   17.122718
     24 1    0.550345    0.550345   17.901023
     25 1    0.000000    0.000000   18.679329
     26 1    0.550345    0.550345   19.457634
     27 1    0.000000    0.000000   20.235939
     28 1    0.550345    0.550345   21.014245
     29 1    0.000000    0.000000   21.792550
     30 1    0.550345    0.550345   22.570856
     31 1    0.000000    0.000000   23.349161
     32 1    0.550345    0.550345   24.127466
     33 1    0.000000    0.000000   24.905772
     34 1    0.550345    0.550345   25.684077
     35 1    0.000000    0.000000   26.462382
     36 1    0.550345    0.550345   27.240688
     37 1    0.000000    0.000000   28.018993
     38 1    0.550345    0.550345   28.797298
     39 1    0.000000    0.000000   29.575604
     40 1    0.550345    0.550345   30.353909
     41 1    0.000000    0.000000   31.132215
     42 1    0.550345    0.550345   31.910520
     43 4    0.000000    0.000000   32.688825
     44 4    0.550345    0.550345   33.467131
     45 3    0.000000    0.000000   34.245436
     46 3    0.550345    0.550345   35.023741
     47 3    0.000000    0.000000   35.802047
     48 3    0.550345    0.550345   36.580352
     49 3    0.000000    0.000000   37.358657
     50 3    0.550345    0.550345   38.136963
     51 3    0.000000    0.000000   38.915268
     52 3    0.550345    0.550345   39.693574
     53 3    0.000000    0.000000   40.471879
     54 3    0.550345    0.550345   41.250184
     55 3    0.000000    0.000000   42.028490
     56 3    0.550345    0.550345   42.806795
     57 2    0.000000    1.100690    0.000000
     58 2    0.550345    1.651035    0.778305
     59 1    0.000000    1.100690    1.556611
     60 1    0.550345    1.651035    2.334916
     61 1    0.000000    1.100690    3.113221
     62 1    0.550345    1.651035    3.891527
     63 1    0.000000    1.100690    4.669832
     64 1    0.550345    1.651035    5.448138
     65 1    0.000000    1.100690    6.226443
     66 1    0.550345    1.651035    7.004748
     67 1    0.000000    1.100690    7.783054
     68 1    0.550345    1.651035    8.561359
     69 1    0.000000    1.100690    9.339664
     70 1    0.550345    1.651035   10.117970
     71 1    0.000000    1.100690   10.896275
     72 1    0.550345    1.651035   11.674580
     73 1    0.000000    1.100690   12.452886
     74 1    0.550345    1.651035   13.231191
     75 1    0.000000    1.100690   14.009497
     76 1    0.550345    1.651035   14.787802
     77 1    0.000000    1.100690   15.566107
     78 1    0.550345    1.651035   16.344413
     79 1    0.000000    1.100690   17.122718
     80 1    0.550345    1.651035   17.901023
     81 1    0.000000    1.100690   18.679329
     82 1    0.550345    1.651035   19.457634
     83 1    0.000000    1.100690   20.235939
     84 1    0.550345    1.651035   21.014245
     85 1    0.000000    1.100690   21.792550
     86 1    0.550345    1.651035   22.570856
     87 1    0.000000    1.100690   23.349161
     88 1    0.550345    1.651035   24.127466
     89 1    0.000000    1.100690   24.905772
     90 1    0.550345    1.651035   25.684077
     91 1    0.000000    1.100690   26.462382
     92 1    0.550345    1.651035   27.240688
     93 1    0.000000    1.100690   28.018993
     94 1    0.550345    1.651035   28.797298
     95 1    0.000000    1.100690   29.575604
     96 1    0.550345    1.651035   30.353909
     97 1    0.000000    1.100690   31.132215
     98 1    0.550345    1.651035   31.910520
     99 4    0.000000    1.100690   32.688825
    100 4    0.550345    1.651035   33.467131
    101 3    0.000000    1.100690   34.245436
    102 3    0.550345    1.651035   35.023741
    103 3    0.000000    1.100690   35.802047
    104 3    0.550345    1.651035   36.580352
    105 3    0.000000    1.100690   37.358657
    106 3    0.550345    1.651035   38.136963
    107 3    0.000000    1.100690   38.915268
    108 3    0.550345    1.651035   39.693574
    109 3    0.000000    1.100690   40.471879
    110 3    0.550345    1.651035   41.250184
    111 3    0.000000    1.100690   42.028490
    112 3    0.550345    1.651035   42.806795
    113 2    0.000000    2.201380    0.000000
    114 2    0.550345    2.751725    0.778305
    115 1    0.000000    2.201380    1.556611
    116 1    0.550345    2.751725    2.334916
    117 1    0.000000    2.201380    3.113221
    118 1    0.550345    2.751725    3.891527
    119 1    0.000000    2.201380    4.669832
    120 1    0.550345    2.751725    5.448138
    121 1    0.000000    2.201380    6.226443
    122 1    0.550345    2.751725    7.004748
    123 1    0.000000    2.201380    7.783054
    124 1    0.550345    2.751725    8.561359
    125 1    0.000000    2.201380    9.339664
    126 1    0.550345    2.751725   10.117970
    127 1    0.000000    2.201380   10.896275
    128 1    0.550345    2.751725   11.674580
    129 1    0.000000    2.201380   12.452886
    130 1    0.550345    2.751725   13.231191
    131 1    0.000000    2.201380   14.009497
    132 1    0.550345    2.751725   14.787802
    133 1    0.000000    2.201380   15.566107
    134 1    0.550345    2.751725   16.344413
    135 1    0.000000    2.201380   17.122718
    136 1    0.550345    2.751725   17.901023
    137 1    0.000000    2.201380   18.679329
    138 1    0.550345    2.751725   19.457634
    139 1    0.000000    2.201380   20.235939
    140 1    0.550345    2.751725   21.014245
    141 1    0.000000    2.201380   21.792550
    142 1    0.550345    2.751725   22.570856
    143 1    0.000000    2.201380   23.349161
    144 1    0.550345    2.751725   24.127466
    145 1    0.000000    2.201380   24.905772
    146 1    0.550345    2.751725   25.684077
    147 1    0.000000    2.201380   26.462382
    148 1    0.550345    2.751725   27.240688
    149 1    0.000000    2.201380   28.018993
    150 1    0.550345    2.751725   28.797298
    151 1    0.000000    2.201380   29.575604
    152 1    0.550345    2.751725   30.353909
    153 1    0.000000    2.201380   31.132215
    154 1    0.550345    2.751725   31.910520
    155 4    0.000000    2.201380   32.688825
    156 4    0.550345    2.751725   33.467131
    157 3    0.000000    2.201380   34.245436
    158 3    0.550345    2.751725   35.023741
    159 3    0.000000    2.201380   35.802047
    160 3    0.550345    2.751725   36.580352
    161 3    0.000000    2.201380   37.358657
    162 3    0.550345    2.751725   38.136963
    163 3    0.000000    2.201380   38.915268
    164 3    0.550345    2.751725   39.693574
    165 3    0.000000    2.201380   40.471879
    166 3    0.550345    2.751725   41.250184
    167 3    0.000000    2.201380   42.028490
    168 3    0.550345    2.751725   42.806795
    169 2    0.000000    3.302070    0.000000
    170 2    0.550345    3.852415    0.778305
    171 1    0.000000    3.302070    1.556611
    172 1    0.550345    3.852415    2.334916
    173 1    0.000000    3.302070    3.113221
    174 1    0.550345    3.852415    3.891527
    175 1    0.000000    3.302070    4.669832
    176 1    0.550345    3.852415    5.448138
    177 1    0.000000    3.302070    6.226443
    178 1    0.550345    3.852415    7.004748
    179 1    0.000000    3.302070    7.783054
    180 1    0.550345    3.852415    8.561359
    181 1    0.000000    3.302070    9.339664
    182 1    0.550345    3.852415   10.117970
    183 1    0.000000    3.302070   10.896275
    184 1    0.550345    3.852415   11.674580
    185 1    0.000000    3.302070   12.452886
    186 1    0.550345    3.852415   13.231191
    187 1    0.000000    3.302070   14.009497
    188 1    0.550345    3.852415   14.787802
    189 1    0.000000    3.302070   15.566107
    190 1    0.550345    3.852415   16.344413
    191 1    0.000000    3.302070   17.122718
    192 1    0.550345    3.852415   17.901023
    193 1    0.000000    3.302070   18.679329
    194 1    0.550345    3.852415   19.457634
    195 1    0.000000    3.302070   20.235939
    196 1    0.550345    3.852415   21.014245
    197 1    0.000000    3.302070   21.792550
    198 1    0.550345    3.852415   22.570856
    199 1    0.000000    3.302070   23.349161
    200 1    0.550345    3.852415   24.127466
    201 1    0.000000    3.302070   24.905772
    202 1    0.550345    3.852415   25.684077
    203 1    0.000000    3.302070   26.462382
    204 1    0.550345    3.852415   27.240688
    205 1    0.000000    3.302070   28.018993
    206 1    0.550345    3.852415   28.797298
    207 1    0.000000    3.302070   29.575604
    208 1    0.550345    3.852415   30.353909
    209 1    0.000000    3.302070   31.132215
    210 1    0.550345    3.852415   31.910520
    211 4    0.000000    3.302070   32.688825
    212 4    0.550345    3.852415   33.467131
    213 3    0.000000    3.302070   34.245436
    214 3    0.550345    3.852415   35.023741
    215 3    0.000000    3.302070   35.802047
    216 3    0.550345    3.852415   36.580352
    217 3    0.000000    3.302070   37.358657
    218 3    0.550345    3.852415   38.136963
    219 3    0.000000    3.302070   38.915268
    220 3    0.550345    3.852415   39.693574
    221 3    0.000000    3.302070   40.471879
    222 3    0.550345    3.852415   41.250184
    223 3    0.000000    3.302070   42.028490
    224 3    0.550345    3.852415   42.806795
    225 2    0.000000    4.402760    0.000000
    226 2    0.550345    4.953105    0.778305
    227 1    0.000000    4.402760    1.556611
    228 1    0.550345    4.953105    2.334916
    229 1    0.000000    4.402760    3.113221
    230 1    0.550345    4.953105    3.891527
    231 1    0.000000    4.402760    4.669832
    232 1    0.550345    4.953105    5.448138
    233 1    0.000000    4.402760    6.226443
    234 1    0.550345    4.953105    7.004748
    235 1    0.000000    4.402760    7.783054
    236 1    0.550345    4.953105    8.561359
    237 1    0.000000    4.402760    9.339664
    238 1    0.550345    4.953105   10.117970
    239 1    0.000000    4.402760   10.896275
    240 1    0.550345    4.953105   11.674580
    241 1    0.000000    4.402760   12.452886
    242 1    0.550345    4.953105   13.231191
    243 1    0.000000    4.402760   14.009497
    244 1    0.550345    4.953105   14.787802
    245 1    0.000000    4.402760   15.566107
    246 1    0.550345    4.953105   16.344413
    247 1    0.000000    4.402760   17.122718
    248 1    0.550345    4.953105   17.901023
    249 1    0.000000    4.402760   18.679329
    250 1    0.550345    4.953105   19.457634
    251 1    0.000000    4.402760   20.235939
    252 1    0.550345    4.953105   21.014245
    253 1    0.000000    4.402760   21.792550
    254 1    0.550345    4.953105   22.570856
    255 1    0.000000    4.402760   23.349161
    256 1    0.550345    4.953105   24.127466
    257 1    0.000000    4.402760   24.905772
    258 1    0.550345    4.953105   25.684077
    259 1    0.000000    4.402760   26.462382
    260 1    0.550345    4.953105   27.240688
    261 1    0.000000    4.402760   28.018993
    262 1    0.550345    4.953105   28.797298
    263 1    0.000000    4.402760   29.575604
    264 1    0.550345    4.953105   30.353909
    265 1    0.000000    4.402760   31.132215
    266 1    0.550345    4.953105   31.910520
    267 4    0.000000    4.402760   32.688825
    268 4    0.550345    4.953105   33.467131
    269 3    0.000000    4.402760   34.245436
    270 3    0.550345    4.953105   35.023741
    271 3    0.000000    4.402760   35.802047
    272 3    0.550345    4.953105   36.580352
    273 3    0.000000    4.402760   37.358657
    274 3    0.550345    4.953105   38.136963
    275 3    0.000000    4.402760   38.915268
    276 3    0.550345    4.953105   39.693574
    277 3    0.000000    4.402760   40.471879
    278 3    0.550345    4.953105   41.250184
    279 3    0.000000    4.402760   42.028490
    280 3    0.550345    4.953105   42.806795
    281 2    0.000000    5.503450    0.000000
    282 2    0.550345    6.053795    0.778305
    283 1    0.000000    5.503450    1.556611
    284 1    0.550345    6.053795    2.334916
    285 1    0.000000    5.503450    3.113221
    286 1    0.550345    6.053795    3.891527
    287 1    0.000000    5.503450    4.669832
    288 1    0.550345    6.053795    5.448138
    289 1    0.000000    5.503450    6.226443
    290 1    0.550345    6.053795    7.004748
    291 1    0.000000    5.503450    7.783054
    292 1    0.550345    6.053795    8.561359
    293 1    0.000000    5.503450    9.339664
    294 1    0.550345    6.053795   10.117970
    295 1    0.000000    5.503450   10.896275
    296 1    0.550345    6.053795   11.674580
    297 1    0.000000    5.503450   12.452886
    298 1    0.550345    6.053795   13.231191
    299 1    0.000000    5.503450   14.009497
    300 1    0.550345    6.053795   14.787802
    301 1    0.000000    5.503450   15.566107
    302 1    0.550345    6.053795   16.344413
    303 1    0.000000    5.503450   17.122718
    304 1    0.550345    6.053795   17.901023
    305 1    0.000000    5.503450   18.679329
    306 1    0.550345    6.053795   19.457634
    307 1    0.000000    5.503450   20.235939
    308 1    0.550345    6.053795   21.014245
    309 1    0.000000    5.503450   21.792550
    310 1    0.550345    6.053795   22.570856
    311 1    0.000000    5.503450   23.349161
    312 1    0.550345    6.053795   24.127466
    313 1    0.000000    5.503450   24.905772
    314 1    0.550345    6.053795   25.684077
    315 1    0.000000    5.503450   26.462382
    316 1    0.550345    6.053795   27.240688
    317 1    0.000000    5.503450   28.018993
    318 1    0.550345    6.053795   28.797298
    319 1    0.000000    5.503450   29.575604
    320 1    0.550345    6.053795   30.353909
    321 1    0.000000    5.503450   31.132215
    322 1    0.550345    6.053795   31.910520
    323 4    0.000000    5.503450   32.688825
    324 4    0.550345    6.053795   33.467131
    325 3    0.000000    5.503450   34.245436
    326 3    0.550345    6.053795   35.023741
    327 3    0.000000    5.503450   35.802047
    328 3    0.550345    6.053795   36.580352
    329 3    0.000000    5.503450   37.358657
    330 3    0.550345    6.053795   38.136963
    331 3    0.000000    5.503450   38.915268
    332 3    0.550345    6.053795   39.693574
    333 3    0.000000    5.503450   40.471879
    334 3    0.550345    6.053795   41.250184
    335 3    0.000000    5.503450   42.028490
    336 3    0.550345    6.053795   42.806795
    337 2    0.000000    6.604140    0.000000
    338 2    0.550345    7.154485    0.778305
    339 1    0.000000    6.604140    1.556611
    340 1    0.550345    7.154485    2.334916
    341 1    0.000000    6.604140    3.113221
    342 1    0.550345    7.154485    3.891527
    343 1    0.000000    6.604140    4.669832
    344 1    0.550345    7.154485    5.448138
    345 1    0.000000    6.604140    6.226443
    346 1    0.550345    7.154485    7.004748
    347 1    0.000000    6.604140    7.783054
    348 1    0.550345    7.154485    8.561359
    349 1    0.000000    6.604140    9.339664
    350 1    0.550345    7.154485   10.117970
    351 1    0.000000    6.604140   10.896275
    352 1    0.550345    7.154485   11.674580
    353 1    0.000000    6.604140   12.452886
    354 1    0.550345    7.154485   13.231191
    355 1    0.000000    6.604140   14.009497
    356 1    0.550345    7.154485   14.787802
    357 1    0.000000    6.604140   15.566107
    358 1    0.550345    7.154485   16.344413
    359 1    0.000000    6.604140   17.122718
    360 1    0.550345    7.154485   17.901023
    361 1    0.000000    6.604140   18.679329
    362 1    0.550345    7.154485   19.457634
    363 1    0.000000    6.604140   20.235939
    364 1    0.550345    7.154485   21.014245
    365 1    0.000000    6.604140   21.792550
    366 1    0.550345    7.154485   22.570856
    367 1    0.000000    6.604140   23.349161
    368 1    0.550345    7.154485   24.127466
    369 1    0.000000    6.604140   24.905772
    370 1    0.550345    7.154485   25.684077
    371 1    0.000000    6.604140   26.462382
    372 1    0.550345    7.154485   27.240688
    373 1    0.000000    6.604140   28.018993
    374 1    0.550345    7.154485   28.797298
    375 1    0.000000    6.604140   29.575604
    376 1    0.550345    7.154485   30.353909
    377 1    0.000000    6.604140   31.132215
    378 1    0.550345    7.154485   31.910520
    379 4    0.000000    6.604140   32.688825
    380 4    0.550345    7.154485   33.467131
    381 3    0.000000    6.604140   34.245436
    382 3    0.550345    7.154485   35.023741
    383 3    0.000000    6.604140   35.802047
    384 3    0.550345    7.154485   36.580352
    385 3    0.000000    6.604140   37.358657
    386 3    0.550345    7.154485   38.136963
    387 3    0.000000    6.604140   38.915268
    388 3    0.550345    7.154485   39.693574
    389 3    0.000000    6.604140   40.471879
    390 3    0.550345    7.154485   41.250184
    391 3    0.000000    6.604140   42.028490
    392 3    0.550345    7.154485   42.806795
    393 2    0.000000    7.704830    0.000000
    394 2    0.550345    8.255175    0.778305
    395 1    0.000000    7.704830    1.556611
    396 1    0.550345    8.255175    2.334916
    397 1    0.000000    7.704830    3.113221
    398 1    0.550345    8.255175    3.891527
    399 1    0.000000    7.704830    4.669832
    400 1    0.550345    8.255175    5.448138
    401 1    0.000000    7.704830    6.226443
    402 1    0.550345    8.255175    7.004748
    403 1    0.000000    7.704830    7.783054
    404 1    0.550345    8.255175    8.561359
    405 1    0.000000    7.704830    9.339664
    406 1    0.550345    8.255175   10.117970
    407 1    0.000000    7.704830   10.896275
    408 1    0.550345    8.255175   11.674580
    409 1    0.000000    7.704830   12.452886
    410 1    0.550345    8.255175   13.231191
    411 1    0.000000    7.704830   14.009497
    412 1    0.550345    8.255175   14.787802
    413 1    0.000000    7.704830   15.566107
    414 1    0.550345    8.255175   16.344413
    415 1    0.000000    7.704830   17.122718
    416 1    0.550345    8.255175   17.901023
    417 1    0.000000    7.704830   18.679329
    418 1    0.550345    8.255175   19.457634
    419 1    0.000000    7.704830   20.235939
    420 1    0.550345    8.255175   21.014245
    421 1    0.000000    7.704830   21.792550
    422 1    0.550345    8.255175   22.570856
    423 1    0.000000    7.704830   23.349161
    424 1    0.550345    8.255175   24.127466
    425 1    0.000000    7.704830   24.905772
    426 1    0.550345    8.255175   25.684077
    427 1    0.000000    7.704830   26.462382
    428 1    0.550345    8.255175   27.240688
    429 1    0.000000    7.704830   28.018993
    430 1    0.550345    8.255175   28.797298
    431 1    0.000000    7.704830   29.575604
    432 1    0.550345    8.255175   30.353909
    433 1    0.000000    7.704830   31.132215
    434 1    0.550345    8.255175   31.910520
    435 4    0.000000    7.704830   32.688825
    436 4    0.550345    8.255175   33.467131
    437 3    0.000000    7.704830   34.245436
    438 3    0.550345    8.255175   35.023741
    439 3    0.000000    7.704830   35.802047
    440 3    0.550345    8.255175   36.580352
    441 3    0.000000    7.704830   37.358657
    442 3    0.550345    8.255175   38.136963
    443 3    0.000000    7.704830   38.915268
    444 3    0.550345    8.255175   39.693574
    445 3    0.000000    7.704830   40.471879
    446 3    0.550345    8.255175   41.250184
    447 3    0.000000    7.704830   42.028490
    448 3    0.550345    8.255175   42.806795
    449 2    1.100690    0.000000    0.000000
    450 2    1.651035    0.550345    0.778305
    451 1    1.100690    0.000000    1.556611
    452 1    1.651035    0.550345    2.334916
    453 1    1.100690    0.000000    3.113221
    454 1    1.651035    0.550345    3.891527
    455 1    1.100690    0.000000    4.669832
    456 1    1.651035    0.550345    5.448138
    457 1    1.100690    0.000000    6.226443
    458 1    1.651035    0.550345    7.004748
    459 1    1.100690    0.000000    7.783054
    460 1    1.651035    0.550345    8.561359
    461 1    1.100690    0.000000    9.339664
    462 1    1.651035    0.550345   10.117970
    463 1    1.100690    0.000000   10.896275
    464 1    1.651035    0.550345   11.674580
    465 1    1.100690    0.000000   12.452886
    466 1    1.651035    0.550345   13.231191
    467 1    1.100690    0.000000   14.009497
    468 1    1.651035    0.550345   14.787802
    469 1    1.100690    0.000000   15.566107
    470 1    1.651035    0.550345   16.344413
    471 1    1.100690    0.000000   17.122718
    472 1    1.651035    0.550345   17.901023
    473 1    1.100690    0.000000   18.679329
    474 1    1.651035    0.550345   19.457634
    475 1    1.100690    0.000000   20.235939
    476 1    1.651035    0.550345   21.014245
    477 1    1.100690    0.000000   21.792550
    478 1    1.651035    0.550345   22.570856
    479 1    1.100690    0.000000   23.349161
    480 1    1.651035    0.550345   24.127466
    481 1    1.100690    0.000000   24.905772
    482 1    1.651035    0.550345   25.684077
    483 1    1.100690    0.000000   26.462382
    484 1    1.651035    0.550345   27.240688
    485 1    1.100690    0.000000   28.018993
    486 1    1.651035    0.550345   28.797298
    487 1    1.100690    0.000000   29.575604
    488 1    1.651035    0.550345   30.353909
    489 1    1.100690    0.000000   31.132215
    490 1    1.651035    0.550345   31.910520
    491 4    1.100690    0.000000   32.688825
    492 4    1.651035    0.550345   33.467131
    493 3    1.100690    0.000000   34.245436
    494 3    1.651035    0.550345   35.023741
    495 3    1.100690    0.000000   35.802047
    496 3    1.651035    0.550345   36.580352
    497 3    1.100690    0.000000   37.358657
    498 3    1.651035    0.550345   38.136963
    499 3    1.100690    0.000000   38.915268
    500 3    1.651035    0.550345   39.693574
    501 3    1.100690    0.000000   40.471879
    502 3    1.651035    0.550345   41.250184
    503 3    1.100690    0.000000   42.028490
    504 3    1.651035    0.550345   42.806795
    505 2    1.100690    1.100690    0.000000
    506 2    1.651035    1.651035    0.778305
    507 1    1.100690    1.100690    1.556611
    508 1    1.651035    1.651035    2.334916
    509 1    1.100690    1.100690    3.113221
    510 1    1.651035    1.651035    3.891527
    511 1    1.100690    1.100690    4.669832
    512 1    1.651035    1.651035    5.448138
    513 1    1.100690    1.100690    6.226443
    514 1    1.651035    1.651035    7.004748
    515 1    1.100690    1.100690    7.783054
    516 1    1.651035    1.651035    8.561359
    517 1    1.100690    1.100690    9.339664
    518 1    1.651035    1.651035   10.117970
    519 1    1.100690    1.100690   10.896275
    520 1    1.651035    1.651035   11.674580
    521 1    1.100690    1.100690   12.452886
    522 1    1.651035    1.651035   13.231191
    523 1    1.100690    1.100690   14.009497
    524 1    1.651035    1.651035   14.787802
    525 1    1.100690    1.100690   15.566107
    526 1    1.651035    1.651035   16.344413
    527 1    1.100690    1.100690   17.122718
    528 1    1.651035    1.651035   17.901023
    529 1    1.100690    1.100690   18.679329
    530 1    1.651035    1.651035   19.457634
    531 1    1.100690    1.100690   20.235939
    532 1    1.651035    1.651035   21.014245
    533 1    1.100690    1.100690   21.792550
    534 1    1.651035    1.651035   22.570856
    535 1    1.100690    1.100690   23.349161
    536 1    1.651035    1.651035   24.127466
    537 1    1.100690    1.100690   24.905772
    538 1    1.651035    1.651035   25.684077
    539 1    1.100690    1.100690   26.462382
    540 1    1.651035    1.651035   27.240688
    541 1    1.100690    1.100690   28.018993
    542 1    1.651035    1.651035   28.797298
    543 1    1.100690    1.100690   29.575604
    544 1    1.651035    1.651035   30.353909
    545 1    1.100690    1.100690   31.132215
    546 1    1.651035    1.651035   31.910520
    547 4    1.100690    1.100690   32.688825
    548 4    1.651035    1.651035   33.467131
    549 3    1.100690    1.100690   34.245436
    550 3    1.651035    1.651035   35.023741
    551 3    1.100690    1.100690   35.802047
    552 3    1.651035    1.651035   36.580352
    553 3    1.100690    1.100690   37.358657
    554 3    1.651035    1.651035   38.136963
    555 3    1.100690    1.100690   38.915268
    556 3    1.651035    1.651035   39.693574
    557 3    1.100690    1.100690   40.471879
    558 3    1.651035    1.651035   41.250184
    559 3    1.100690    1.100690   42.028490
    560 3    1.651035    1.651035   42.806795
    561 2    1.100690    2.201380    0.000000
    562 2    1.651035    2.751725    0.778305
    563 1    1.100690    2.201380    1.556611
    564 1    1.651035    2.751725    2.334916
    565 1    1.100690    2.201380    3.113221
    566 1    1.651035    2.751725    3.891527
    567 1    1.100690    2.201380    4.669832
    568 1    1.651035    2.751725    5.448138
    569 1    1.100690    2.201380    6.226443
    570 1    1.651035    2.751725    7.004748
    571 1    1.100690    2.201380    7.783054
    572 1    1.651035    2.751725    8.561359
    573 1    1.100690    2.201380    9.339664
    574 1    1.651035    2.751725   10.117970
    575 1    1.100690    2.201380   10.896275
    576 1    1.651035    2.751725   11.674580
    577 1    1.100690    2.201380   12.452886
    578 1    1.651035    2.751725   13.231191
    579 1    1.100690    2.201380   14.009497
    580 1    1.651035    2.751725   14.787802
    581 1    1.100690    2.201380   15.566107
    582 1    1.651035    2.751725   16.344413
    583 1    1.100690    2.201380   17.122718
    584 1    1.651035    2.751725   17.901023
    585 1    1.100690    2.201380   18.679329
    586 1    1.651035    2.751725   19.457634
    587 1    1.100690    2.201380   20.235939
    588 1    1.651035    2.751725   21.014245
    589 1    1.100690    2.201380   21.792550
    590 1    1.651035    2.751725   22.570856
    591 1    1.100690    2.201380   23.349161
    592 1    1.651035    2.751725   24.127466
    593 1    1.100690    2.201380   24.905772
    594 1    1.651035    2.751725   25.684077
    595 1    1.100690    2.201380   26.462382
    596 1    1.651035    2.751725   27.240688
    597 1    1.100690    2.201380   28.018993
    598 1    1.651035    2.751725   28.797298
    599 1    1.100690    2.201380   29.575604
    600 1    1.651035    2.751725   30.353909
    601 1    1.100690    2.201380   31.132215
    602 1    1.651035    2.751725   31.910520
    603 4    1.100690    2.201380   32.688825
    604 4    1.651035    2.751725   33.467131
    605 3    1.100690    2.201380   34.245436
    606 3    1.651035    2.751725   35.023741
    607 3    1.100690    2.201380   35.802047
    608 3    1.651035    2.751725   36.580352
    609 3    1.100690    2.201380   37.358657
    610 3    1.651035    2.751725   38.136963
    611 3    1.100690    2.201380   38.915268
    612 3    1.651035    2.751725   39.693574
    613 3    1.100690    2.201380   40.471879
    614 3    1.651035    2.751725   41.250184
    615 3    1.100690    2.201380   42.028490
    616 3    1.651035    2.751725   42.806795
    617 2    1.100690    3.302070    0.000000
    618 2    1.651035    3.852415    0.778305
    619 1    1.100690    3.302070    1.556611
    620 1    1.651035    3.852415    2.334916
    621 1    1.100690    3.302070    3.113221
    622 1    1.651035    3.852415    3.891527
    623 1    1.100690    3.302070    4.669832
    624 1    1.651035    3.852415    5.448138
    625 1    1.100690    3.302070    6.226443
    626 1    1.651035    3.852415    7.004748
    627 1    1.100690    3.302070    7.783054
    628 1    1.651035    3.852415    8.561359
    629 1    1.100690    3.302070    9.339664
    630 1    1.651035    3.852415   10.117970
    631 1    1.100690    3.302070   10.896275
    632 1    1.651035    3.852415   11.674580
    633 1    1.100690    3.302070   12.452886
    634 1    1.651035    3.852415   13.231191
    635 1    1.100690    3.302070   14.009497
    636 1    1.651035    3.852415   14.787802
    637 1    1.100690    3.302070   15.566107
    638 1    1.651035    3.852415   16.344413
    639 1    1.100690    3.302070   17.122718
    640 1    1.651035    3.852415   17.901023
    641 1    1.100690    3.302070   18.679329
    642 1    1.651035    3.852415   19.457634
    643 1    1.100690    3.302070   20.235939
    644 1    1.651035    3.852415   21.014245
    645 1    1.100690    3.302070   21.792550
    646 1    1.651035    3.852415   22.570856
    647 1    1.100690    3.302070   23.349161