
        2176 atoms

4 atom types

0.0         8.8055200 xlo xhi
0.0         8.8055200 ylo yhi
      -10.584953       34.401096 zlo zhi

Masses

1 1.000000
2 1.000000
3 1.000000
4 1.000000

Atoms
 
      1 2    0.000000    0.000000    0.000000
      2 2    0.550345    0.550345    0.778305
      3 1    0.000000    0.000000    1.556611
      4 1    0.550345    0.550345    2.334916
      5 1    0.000000    0.000000    3.113221
      6 1    0.550345    0.550345    3.891527
      7 1    0.000000    0.000000    4.669832
      8 1    0.550345    0.550345    5.448138
      9 1    0.000000    0.000000    6.226443
     10 1    0.550345    0.550345    7.004748
     11 1    0.000000    0.000000    7.783054
     12 1    0.550345    0.550345    8.561359
     13 1    0.000000    0.000000    9.339664
     14 1    0.550345    0.550345   10.117970
     15 1    0.000000    0.000000   10.896275
     16 1    0.550345    0.550345   11.674580
     17 1    0.000000    0.000000   12.452886
     18 1    0.550345    0.550345   13.231191
     19 1    0.000000    0.000000   14.009497
     20 1    0.550345    0.550345   14.787802
     21 4    0.000000    0.000000   15.566107
     22 4    0.550345    0.550345   16.344413
     23 3    0.000000    0.000000   17.122718
     24 3    0.550345    0.550345   17.901023
     25 3    0.000000    0.000000   18.679329
     26 3    0.550345    0.550345   19.457634
     27 3    0.000000    0.000000   20.235939
     28 3    0.550345    0.550345   21.014245
     29 3    0.000000    0.000000   21.792550
     30 3    0.550345    0.550345   22.570856
     31 3    0.000000    0.000000   23.349161
     32 3    0.550345    0.550345   24.127466
     33 3    0.000000    0.000000   24.905772
     34 3    0.550345    0.550345   25.684077
     35 2    0.000000    1.100690    0.000000
     36 2    0.550345    1.651035    0.778305
     37 1    0.000000    1.100690    1.556611
     38 1    0.550345    1.651035    2.334916
     39 1    0.000000    1.100690    3.113221
     40 1    0.550345    1.651035    3.891527
     41 1    0.000000    1.100690    4.669832
     42 1    0.550345    1.651035    5.448138
     43 1    0.000000    1.100690    6.226443
     44 1    0.550345    1.651035    7.004748
     45 1    0.000000    1.100690    7.783054
     46 1    0.550345    1.651035    8.561359
     47 1    0.000000    1.100690    9.339664
     48 1    0.550345    1.651035   10.117970
     49 1    0.000000    1.100690   10.896275
     50 1    0.550345    1.651035   11.674580
     51 1    0.000000    1.100690   12.452886
     52 1    0.550345    1.651035   13.231191
     53 1    0.000000    1.100690   14.009497
     54 1    0.550345    1.651035   14.787802
     55 4    0.000000    1.100690   15.566107
     56 4    0.550345    1.651035   16.344413
     57 3    0.000000    1.100690   17.122718
     58 3    0.550345    1.651035   17.901023
     59 3    0.000000    1.100690   18.679329
     60 3    0.550345    1.651035   19.457634
     61 3    0.000000    1.100690   20.235939
     62 3    0.550345    1.651035   21.014245
     63 3    0.000000    1.100690   21.792550
     64 3    0.550345    1.651035   22.570856
     65 3    0.000000    1.100690   23.349161
     66 3    0.550345    1.651035   24.127466
     67 3    0.000000    1.100690   24.905772
     68 3    0.550345    1.651035   25.684077
     69 2    0.000000    2.201380    0.000000
     70 2    0.550345    2.751725    0.778305
     71 1    0.000000    2.201380    1.556611
     72 1    0.550345    2.751725    2.334916
     73 1    0.000000    2.201380    3.113221
     74 1    0.550345    2.751725    3.891527
     75 1    0.000000    2.201380    4.669832
     76 1    0.550345    2.751725    5.448138
     77 1    0.000000    2.201380    6.226443
     78 1    0.550345    2.751725    7.004748
     79 1    0.000000    2.201380    7.783054
     80 1    0.550345    2.751725    8.561359
     81 1    0.000000    2.201380    9.339664
     82 1    0.550345    2.751725   10.117970
     83 1    0.000000    2.201380   10.896275
     84 1    0.550345    2.751725   11.674580
     85 1    0.000000    2.201380   12.452886
     86 1    0.550345    2.751725   13.231191
     87 1    0.000000    2.201380   14.009497
     88 1    0.550345    2.751725   14.787802
     89 4    0.000000    2.201380   15.566107
     90 4    0.550345    2.751725   16.344413
     91 3    0.000000    2.201380   17.122718
     92 3    0.550345    2.751725   17.901023
     93 3    0.000000    2.201380   18.679329
     94 3    0.550345    2.751725   19.457634
     95 3    0.000000    2.201380   20.235939
     96 3    0.550345    2.751725   21.014245
     97 3    0.000000    2.201380   21.792550
     98 3    0.550345    2.751725   22.570856
     99 3    0.000000    2.201380   23.349161
    100 3    0.550345    2.751725   24.127466
    101 3    0.000000    2.201380   24.905772
    102 3    0.550345    2.751725   25.684077
    103 2    0.000000    3.302070    0.000000
    104 2    0.550345    3.852415    0.778305
    105 1    0.000000    3.302070    1.556611
    106 1    0.550345    3.852415    2.334916
    107 1    0.000000    3.302070    3.113221
    108 1    0.550345    3.852415    3.891527
    109 1    0.000000    3.302070    4.669832
    110 1    0.550345    3.852415    5.448138
    111 1    0.000000    3.302070    6.226443
    112 1    0.550345    3.852415    7.004748
    113 1    0.000000    3.302070    7.783054
    114 1    0.550345    3.852415    8.561359
    115 1    0.000000    3.302070    9.339664
    116 1    0.550345    3.852415   10.117970
    117 1    0.000000    3.302070   10.896275
    118 1    0.550345    3.852415   11.674580
    119 1    0.000000    3.302070   12.452886
    120 1    0.550345    3.852415   13.231191
    121 1    0.000000    3.302070   14.009497
    122 1    0.550345    3.852415   14.787802
    123 4    0.000000    3.302070   15.566107
    124 4    0.550345    3.852415   16.344413
    125 3    0.000000    3.302070   17.122718
    126 3    0.550345    3.852415   17.901023
    127 3    0.000000    3.302070   18.679329
    128 3    0.550345    3.852415   19.457634
    129 3    0.000000    3.302070   20.235939
    130 3    0.550345    3.852415   21.014245
    131 3    0.000000    3.302070   21.792550
    132 3    0.550345    3.852415   22.570856
    133 3    0.000000    3.302070   23.349161
    134 3    0.550345    3.852415   24.127466
    135 3    0.000000    3.302070   24.905772
    136 3    0.550345    3.852415   25.684077
    137 2    0.000000    4.402760    0.000000
    138 2    0.550345    4.953105    0.778305
    139 1    0.000000    4.402760    1.556611
    140 1    0.550345    4.953105    2.334916
    141 1    0.000000    4.402760    3.113221
    142 1    0.550345    4.953105    3.891527
    143 1    0.000000    4.402760    4.669832
    144 1    0.550345    4.953105    5.448138
    145 1    0.000000    4.402760    6.226443
    146 1    0.550345    4.953105    7.004748
    147 1    0.000000    4.402760    7.783054
    148 1    0.550345    4.953105    8.561359
    149 1    0.000000    4.402760    9.339664
    150 1    0.550345    4.953105   10.117970
    151 1    0.000000    4.402760   10.896275
    152 1    0.550345    4.953105   11.674580
    153 1    0.000000    4.402760   12.452886
    154 1    0.550345    4.953105   13.231191
    155 1    0.000000    4.402760   14.009497
    156 1    0.550345    4.953105   14.787802
    157 4    0.000000    4.402760   15.566107
    158 4    0.550345    4.953105   16.344413
    159 3    0.000000    4.402760   17.122718
    160 3    0.550345    4.953105   17.901023
    161 3    0.000000    4.402760   18.679329
    162 3    0.550345    4.953105   19.457634
    163 3    0.000000    4.402760   20.235939
    164 3    0.550345    4.953105   21.014245
    165 3    0.000000    4.402760   21.792550
    166 3    0.550345    4.953105   22.570856
    167 3    0.000000    4.402760   23.349161
    168 3    0.550345    4.953105   24.127466
    169 3    0.000000    4.402760   24.905772
    170 3    0.550345    4.953105   25.684077
    171 2    0.000000    5.503450    0.000000
    172 2    0.550345    6.053795    0.778305
    173 1    0.000000    5.503450    1.556611
    174 1    0.550345    6.053795    2.334916
    175 1    0.000000    5.503450    3.113221
    176 1    0.550345    6.053795    3.891527
    177 1    0.000000    5.503450    4.669832
    178 1    0.550345    6.053795    5.448138
    179 1    0.000000    5.503450    6.226443
    180 1    0.550345    6.053795    7.004748
    181 1    0.000000    5.503450    7.783054
    182 1    0.550345    6.053795    8.561359
    183 1    0.000000    5.503450    9.339664
    184 1    0.550345    6.053795   10.117970
    185 1    0.000000    5.503450   10.896275
    186 1    0.550345    6.053795   11.674580
    187 1    0.000000    5.503450   12.452886
    188 1    0.550345    6.053795   13.231191
    189 1    0.000000    5.503450   14.009497
    190 1    0.550345    6.053795   14.787802
    191 4    0.000000    5.503450   15.566107
    192 4    0.550345    6.053795   16.344413
    193 3    0.000000    5.503450   17.122718
    194 3    0.550345    6.053795   17.901023
    195 3    0.000000    5.503450   18.679329
    196 3    0.550345    6.053795   19.457634
    197 3    0.000000    5.503450   20.235939
    198 3    0.550345    6.053795   21.014245
    199 3    0.000000    5.503450   21.792550
    200 3    0.550345    6.053795   22.570856
    201 3    0.000000    5.503450   23.349161
    202 3    0.550345    6.053795   24.127466
    203 3    0.000000    5.503450   24.905772
    204 3    0.550345    6.053795   25.684077
    205 2    0.000000    6.604140    0.000000
    206 2    0.550345    7.154485    0.778305
    207 1    0.000000    6.604140    1.556611
    208 1    0.550345    7.154485    2.334916
    209 1    0.000000    6.604140    3.113221
    210 1    0.550345    7.154485    3.891527
    211 1    0.000000    6.604140    4.669832
    212 1    0.550345    7.154485    5.448138
    213 1    0.000000    6.604140    6.226443
    214 1    0.550345    7.154485    7.004748
    215 1    0.000000    6.604140    7.783054
    216 1    0.550345    7.154485    8.561359
    217 1    0.000000    6.604140    9.339664
    218 1    0.550345    7.154485   10.117970
    219 1    0.000000    6.604140   10.896275
    220 1    0.550345    7.154485   11.674580
    221 1    0.000000    6.604140   12.452886
    222 1    0.550345    7.154485   13.231191
    223 1    0.000000    6.604140   14.009497
    224 1    0.550345    7.154485   14.787802
    225 4    0.000000    6.604140   15.566107
    226 4    0.550345    7.154485   16.344413
    227 3    0.000000    6.604140   17.122718
    228 3    0.550345    7.154485   17.901023
    229 3    0.000000    6.604140   18.679329
    230 3    0.550345    7.154485   19.457634
    231 3    0.000000    6.604140   20.235939
    232 3    0.550345    7.154485   21.014245
    233 3    0.000000    6.604140   21.792550
    234 3    0.550345    7.154485   22.570856
    235 3    0.000000    6.604140   23.349161
    236 3    0.550345    7.154485   24.127466
    237 3    0.000000    6.604140   24.905772
    238 3    0.550345    7.154485   25.684077
    239 2    0.000000    7.704830    0.000000
    240 2    0.550345    8.255175    0.778305
    241 1    0.000000    7.704830    1.556611
    242 1    0.550345    8.255175    2.334916
    243 1    0.000000    7.704830    3.113221
    244 1    0.550345    8.255175    3.891527
    245 1    0.000000    7.704830    4.669832
    246 1    0.550345    8.255175    5.448138
    247 1    0.000000    7.704830    6.226443
    248 1    0.550345    8.255175    7.004748
    249 1    0.000000    7.704830    7.783054
    250 1    0.550345    8.255175    8.561359
    251 1    0.000000    7.704830    9.339664
    252 1    0.550345    8.255175   10.117970
    253 1    0.000000    7.704830   10.896275
    254 1    0.550345    8.255175   11.674580
    255 1    0.000000    7.704830   12.452886
    256 1    0.550345    8.255175   13.231191
    257 1    0.000000    7.704830   14.009497
    258 1    0.550345    8.255175   14.787802
    259 4    0.000000    7.704830   15.566107
    260 4    0.550345    8.255175   16.344413
    261 3    0.000000    7.704830   17.122718
    262 3    0.550345    8.255175   17.901023
    263 3    0.000000    7.704830   18.679329
    264 3    0.550345    8.255175   19.457634
    265 3    0.000000    7.704830   20.235939
    266 3    0.550345    8.255175   21.014245
    267 3    0.000000    7.704830   21.792550
    268 3    0.550345    8.255175   22.570856
    269 3    0.000000    7.704830   23.349161
    270 3    0.550345    8.255175   24.127466
    271 3    0.000000    7.704830   24.905772
    272 3    0.550345    8.255175   25.684077
    273 2    1.100690    0.000000    0.000000
    274 2    1.651035    0.550345    0.778305
    275 1    1.100690    0.000000    1.556611
    276 1    1.651035    0.550345    2.334916
    277 1    1.100690    0.000000    3.113221
    278 1    1.651035    0.550345    3.891527
    279 1    1.100690    0.000000    4.669832
    280 1    1.651035    0.550345    5.448138
    281 1    1.100690    0.000000    6.226443
    282 1    1.651035    0.550345    7.004748
    283 1    1.100690    0.000000    7.783054
    284 1    1.651035    0.550345    8.561359
    285 1    1.100690    0.000000    9.339664
    286 1    1.651035    0.550345   10.117970
    287 1    1.100690    0.000000   10.896275
    288 1    1.651035    0.550345   11.674580
    289 1    1.100690    0.000000   12.452886
    290 1    1.651035    0.550345   13.231191
    291 1    1.100690    0.000000   14.009497
    292 1    1.651035    0.550345   14.787802
    293 4    1.100690    0.000000   15.566107
    294 4    1.651035    0.550345   16.344413
    295 3    1.100690    0.000000   17.122718
    296 3    1.651035    0.550345   17.901023
    297 3    1.100690    0.000000   18.679329
    298 3    1.651035    0.550345   19.457634
    299 3    1.100690    0.000000   20.235939
    300 3    1.651035    0.550345   21.014245
    301 3    1.100690    0.000000   21.792550
    302 3    1.651035    0.550345   22.570856
    303 3    1.100690    0.000000   23.349161
    304 3    1.651035    0.550345   24.127466
    305 3    1.100690    0.000000   24.905772
    306 3    1.651035    0.550345   25.684077
    307 2    1.100690    1.100690    0.000000
    308 2    1.651035    1.651035    0.778305
    309 1    1.100690    1.100690    1.556611
    310 1    1.651035    1.651035    2.334916
    311 1    1.100690    1.100690    3.113221
    312 1    1.651035    1.651035    3.891527
    313 1    1.100690    1.100690    4.669832
    314 1    1.651035    1.651035    5.448138
    315 1    1.100690    1.100690    6.226443
    316 1    1.651035    1.651035    7.004748
    317 1    1.100690    1.100690    7.783054
    318 1    1.651035    1.651035    8.561359
    319 1    1.100690    1.100690    9.339664
    320 1    1.651035    1.651035   10.117970
    321 1    1.100690    1.100690   10.896275
    322 1    1.651035    1.651035   11.674580
    323 1    1.100690    1.100690   12.452886
    324 1    1.651035    1.651035   13.231191
    325 1    1.100690    1.100690   14.009497
    326 1    1.651035    1.651035   14.787802
    327 4    1.100690    1.100690   15.566107
    328 4    1.651035    1.651035   16.344413
    329 3    1.100690    1.100690   17.122718
    330 3    1.651035    1.651035   17.901023
    331 3    1.100690    1.100690   18.679329
    332 3    1.651035    1.651035   19.457634
    333 3    1.100690    1.100690   20.235939
    334 3    1.651035    1.651035   21.014245
    335 3    1.100690    1.100690   21.792550
    336 3    1.651035    1.651035   22.570856
    337 3    1.100690    1.100690   23.349161
    338 3    1.651035    1.651035   24.127466
    339 3    1.100690    1.100690   24.905772
    340 3    1.651035    1.651035   25.684077
    341 2    1.100690    2.201380    0.000000
    342 2    1.651035    2.751725    0.778305
    343 1    1.100690    2.201380    1.556611
    344 1    1.651035    2.751725    2.334916
    345 1    1.100690    2.201380    3.113221
    346 1    1.651035    2.751725    3.891527
    347 1    1.100690    2.201380    4.669832
    348 1    1.651035    2.751725    5.448138
    349 1    1.100690    2.201380    6.226443
    350 1    1.651035    2.751725    7.004748
    351 1    1.100690    2.201380    7.783054
    352 1    1.651035    2.751725    8.561359
    353 1    1.100690    2.201380    9.339664
    354 1    1.651035    2.751725   10.117970
    355 1    1.100690    2.201380   10.896275
    356 1    1.651035    2.751725   11.674580
    357 1    1.100690    2.201380   12.452886
    358 1    1.651035    2.751725   13.231191
    359 1    1.100690    2.201380   14.009497
    360 1    1.651035    2.751725   14.787802
    361 4    1.100690    2.201380   15.566107
    362 4    1.651035    2.751725   16.344413
    363 3    1.100690    2.201380   17.122718
    364 3    1.651035    2.751725   17.901023
    365 3    1.100690    2.201380   18.679329
    366 3    1.651035    2.751725   19.457634
    367 3    1.100690    2.201380   20.235939
    368 3    1.651035    2.751725   21.014245
    369 3    1.100690    2.201380   21.792550
    370 3    1.651035    2.751725   22.570856
    371 3    1.100690    2.201380   23.349161
    372 3    1.651035    2.751725   24.127466
    373 3    1.100690    2.201380   24.905772
    374 3    1.651035    2.751725   25.684077
    375 2    1.100690    3.302070    0.000000
    376 2    1.651035    3.852415    0.778305
    377 1    1.100690    3.302070    1.556611
    378 1    1.651035    3.852415    2.334916
    379 1    1.100690    3.302070    3.113221
    380 1    1.651035    3.852415    3.891527
    381 1    1.100690    3.302070    4.669832
    382 1    1.651035    3.852415    5.448138
    383 1    1.100690    3.302070    6.226443
    384 1    1.651035    3.852415    7.004748
    385 1    1.100690    3.302070    7.783054
    386 1    1.651035    3.852415    8.561359
    387 1    1.100690    3.302070    9.339664
    388 1    1.651035    3.852415   10.117970
    389 1    1.100690    3.302070   10.896275
    390 1    1.651035    3.852415   11.674580
    391 1    1.100690    3.302070   12.452886
    392 1    1.651035    3.852415   13.231191
    393 1    1.100690    3.302070   14.009497
    394 1    1.651035    3.852415   14.787802
    395 4    1.100690    3.302070   15.566107
    396 4    1.651035    3.852415   16.344413
    397 3    1.100690    3.302070   17.122718
    398 3    1.651035    3.852415   17.901023
    399 3    1.100690    3.302070   18.679329
    400 3    1.651035    3.852415   19.457634
    401 3    1.100690    3.302070   20.235939
    402 3    1.651035    3.852415   21.014245
    403 3    1.100690    3.302070   21.792550
    404 3    1.651035    3.852415   22.570856
    405 3    1.100690    3.302070   23.349161
    406 3    1.651035    3.852415   24.127466
    407 3    1.100690    3.302070   24.905772
    408 3    1.651035    3.852415   25.684077
    409 2    1.100690    4.402760    0.000000
    410 2    1.651035    4.953105    0.778305
    411 1    1.100690    4.402760    1.556611
    412 1    1.651035    4.953105    2.334916
    413 1    1.100690    4.402760    3.113221
    414 1    1.651035    4.953105    3.891527
    415 1    1.100690    4.402760    4.669832
    416 1    1.651035    4.953105    5.448138
    417 1    1.100690    4.402760    6.226443
    418 1    1.651035    4.953105    7.004748
    419 1    1.100690    4.402760    7.783054
    420 1    1.651035    4.953105    8.561359
    421 1    1.100690    4.402760    9.339664
    422 1    1.651035    4.953105   10.117970
    423 1    1.100690    4.402760   10.896275
    424 1    1.651035    4.953105   11.674580
    425 1    1.100690    4.402760   12.452886
    426 1    1.651035    4.953105   13.231191
    427 1    1.100690    4.402760   14.009497
    428 1    1.651035    4.953105   14.787802
    429 4    1.100690    4.402760   15.566107
    430 4    1.651035    4.953105   16.344413
    431 3    1.100690    4.402760   17.122718
    432 3    1.651035    4.953105   17.901023
    433 3    1.100690    4.402760   18.679329
    434 3    1.651035    4.953105   19.457634
    435 3    1.100690    4.402760   20.235939
    436 3    1.651035    4.953105   21.014245
    437 3    1.100690    4.402760   21.792550
    438 3    1.651035    4.953105   22.570856
    439 3    1.100690    4.402760   23.349161
    440 3    1.651035    4.953105   24.127466
    441 3    1.100690    4.402760   24.905772
    442 3    1.651035    4.953105   25.684077
    443 2    1.100690    5.503450    0.000000
    444 2    1.651035    6.053795    0.778305
    445 1    1.100690    5.503450    1.556611
    446 1    1.651035    6.053795    2.334916
    447 1    1.100690    5.503450    3.113221
    448 1    1.651035    6.053795    3.891527
    449 1    1.100690    5.503450    4.669832
    450 1    1.651035    6.053795    5.448138
    451 1    1.100690    5.503450    6.226443
    452 1    1.651035    6.053795    7.004748
    453 1    1.100690    5.503450    7.783054
    454 1    1.651035    6.053795    8.561359
    455 1    1.100690    5.503450    9.339664
    456 1    1.651035    6.053795   10.117970
    457 1    1.100690    5.503450   10.896275
    458 1    1.651035    6.053795   11.674580
    459 1    1.100690    5.503450   12.452886
    460 1    1.651035    6.053795   13.231191
    461 1    1.100690    5.503450   14.009497
    462 1    1.651035    6.053795   14.787802
    463 4    1.100690    5.503450   15.566107
    464 4    1.651035    6.053795   16.344413
    465 3    1.100690    5.503450   17.122718
    466 3    1.651035    6.053795   17.901023
    467 3    1.100690    5.503450   18.679329
    468 3    1.651035    6.053795   19.457634
    469 3    1.100690    5.503450   20.235939
    470 3    1.651035    6.053795   21.014245
    471 3    1.100690    5.503450   21.792550
    472 3    1.651035    6.053795   22.570856
    473 3    1.100690    5.503450   23.349161
    474 3    1.651035    6.053795   24.127466
    475 3    1.100690    5.503450   24.905772
    476 3    1.651035    6.053795   25.684077
    477 2    1.100690    6.604140    0.000000
    478 2    1.651035    7.154485    0.778305
    479 1    1.100690    6.604140    1.556611
    480 1    1.651035    7.154485    2.334916
    481 1    1.100690    6.604140    3.113221
    482 1    1.651035    7.154485    3.891527
    483 1    1.100690    6.604140    4.669832
    484 1    1.651035    7.154485    5.448138
    485 1    1.100690    6.604140    6.226443
    486 1    1.651035    7.154485    7.004748
    487 1    1.100690    6.604140    7.783054
    488 1    1.651035    7.154485    8.561359
    489 1    1.100690    6.604140    9.339664
    490 1    1.651035    7.154485   10.117970
    491 1    1.100690    6.604140   10.896275
    492 1    1.651035    7.154485   11.674580
    493 1    1.100690    6.604140   12.452886
    494 1    1.651035    7.154485   13.231191
    495 1    1.100690    6.604140   14.009497
    496 1    1.651035    7.154485   14.787802
    497 4    1.100690    6.604140   15.566107
    498 4    1.651035    7.154485   16.344413
    499 3    1.100690    6.604140   17.122718
    500 3    1.651035    7.154485   17.901023
    501 3    1.100690    6.604140   18.679329
    502 3    1.651035    7.154485   19.457634
    503 3    1.100690    6.604140   20.235939
    504 3    1.651035    7.154485   21.014245
    505 3    1.100690    6.604140   21.792550
    506 3    1.651035    7.154485   22.570856
    507 3    1.100690    6.604140   23.349161
    508 3    1.651035    7.154485   24.127466
    509 3    1.100690    6.604140   24.905772
    510 3    1.651035    7.154485   25.684077
    511 2    1.100690    7.704830    0.000000
    512 2    1.651035    8.255175    0.778305
    513 1    1.100690    7.704830    1.556611
    514 1    1.651035    8.255175    2.334916
    515 1    1.100690    7.704830    3.113221
    516 1    1.651035    8.255175    3.891527
    517 1    1.100690    7.704830    4.669832
    518 1    1.651035    8.255175    5.448138
    519 1    1.100690    7.704830    6.226443
    520 1    1.651035    8.255175    7.004748
    521 1    1.100690    7.704830    7.783054
    522 1    1.651035    8.255175    8.561359
    523 1    1.100690    7.704830    9.339664
    524 1    1.651035    8.255175   10.117970
    525 1    1.100690    7.704830   10.896275
    526 1    1.651035    8.255175   11.674580
    527 1    1.100690    7.704830   12.452886
    528 1    1.651035    8.255175   13.231191
    529 1    1.100690    7.704830   14.009497
    530 1    1.651035    8.255175   14.787802
    531 4    1.100690    7.704830   15.566107
    532 4    1.651035    8.255175   16.344413
    533 3    1.100690    7.704830   17.122718
    534 3    1.651035    8.255175   17.901023
    535 3    1.100690    7.704830   18.679329
    536 3    1.651035    8.255175   19.457634
    537 3    1.100690    7.704830   20.235939
    538 3    1.651035    8.255175   21.014245
    539 3    1.100690    7.704830   21.792550
    540 3    1.651035    8.255175   22.570856
    541 3    1.100690    7.704830   23.349161
    542 3    1.651035    8.255175   24.127466
    543 3    1.100690    7.704830   24.905772
    544 3    1.651035    8.255175   25.684077
    545 2    2.201380    0.000000    0.000000
    546 2    2.751725    0.550345    0.778305
    547 1    2.201380    0.000000    1.556611
    548 1    2.751725    0.550345    2.334916
    549 1    2.201380    0.000000    3.113221
    550 1    2.751725    0.550345    3.891527
    551 1    2.201380    0.000000    4.669832
    552 1    2.751725    0.550345    5.448138
    553 1    2.201380    0.000000    6.226443
    554 1    2.751725    0.550345    7.004748
    555 1    2.201380    0.000000    7.783054
    556 1    2.751725    0.550345    8.561359
    557 1    2.201380    0.000000    9.339664
    558 1    2.751725    0.550345   10.117970
    559 1    2.201380    0.000000   10.896275
    560 1    2.751725    0.550345   11.674580
    561 1    2.201380    0.000000   12.452886
    562 1    2.751725    0.550345   13.231191
    563 1    2.201380    0.000000   14.009497
    564 1    2.751725    0.550345   14.787802
    565 4    2.201380    0.000000   15.566107
    566 4    2.751725    0.550345   16.344413
    567 3    2.201380    0.000000   17.122718
    568 3    2.751725    0.550345   17.901023
    569 3    2.201380    0.000000   18.679329
    570 3    2.751725    0.550345   19.457634
    571 3    2.201380    0.000000   20.235939
    572 3    2.751725    0.550345   21.014245
    573 3    2.201380    0.000000   21.792550
    574 3    2.751725    0.550345   22.570856
    575 3    2.201380    0.000000   23.349161
    576 3    2.751725    0.550345   24.127466
    577 3    2.201380    0.000000   24.905772
    578 3    2.751725    0.550345   25.684077
    579 2    2.201380    1.100690    0.000000
    580 2    2.751725    1.651035    0.778305
    581 1    2.201380    1.100690    1.556611
    582 1    2.751725    1.651035    2.334916
    583 1    2.201380    1.100690    3.113221
    584 1    2.751725    1.651035    3.891527
    585 1    2.201380    1.100690    4.669832
    586 1    2.751725    1.651035    5.448138
    587 1    2.201380    1.100690    6.226443
    588 1    2.751725    1.651035    7.004748
    589 1    2.201380    1.100690    7.783054
    590 1    2.751725    1.651035    8.561359
    591 1    2.201380    1.100690    9.339664
    592 1    2.751725    1.651035   10.117970
    593 1    2.201380    1.100690   10.896275
    594 1    2.751725    1.651035   11.674580
    595 1    2.201380    1.100690   12.452886
    596 1    2.751725    1.651035   13.231191
    597 1    2.201380    1.100690   14.009497
    598 1    2.751725    1.651035   14.787802
    599 4    2.201380    1.100690   15.566107
    600 4    2.751725    1.651035   16.344413
    601 3    2.201380    1.100690   17.122718
    602 3    2.751725    1.651035   17.901023
    603 3    2.201380    1.100690   18.679329
    604 3    2.751725    1.651035   19.457634
    605 3    2.201380    1.100690   20.235939
    606 3    2.751725    1.651035   21.014245
    607 3    2.201380    1.100690   21.792550
    608 3    2.751725    1.651035   22.570856
    609 3    2.201380    1.100690   23.349161
    610 3    2.751725    1.651035   24.127466
    611 3    2.201380    1.100690   24.905772
    612 3    2.751725    1.651035   25.684077
    613 2    2.201380    2.201380    0.000000
    614 2    2.751725    2.751725    0.778305
    615 1    2.201380    2.201380    1.556611
    616 1    2.751725    2.751725    2.334916
    617 1    2.201380    2.201380    3.113221
    618 1    2.751725    2.751725    3.891527
    619 1    2.201380    2.201380    4.669832
    620 1    2.751725    2.751725    5.448138
    621 1    2.201380    2.201380    6.226443
    622 1    2.751725    2.751725    7.004748
    623 1    2.201380    2.201380    7.783054
    624 1    2.751725    2.751725    8.561359
    625 1    2.201380    2.201380    9.339664
    626 1    2.751725    2.751725   10.117970
    627 1    2.201380    2.201380   10.896275
    628 1    2.751725    2.751725   11.674580
    629 1    2.201380    2.201380   12.452886
    630 1    2.751725    2.751725   13.231191
    631 1    2.201380    2.201380   14.009497
    632 1    2.751725    2.751725   14.787802
    633 4    2.201380    2.201380   15.566107
    634 4    2.751725    2.751725   16.344413
    635 3    2.201380    2.201380   17.122718
    636 3    2.751725    2.751725   17.901023
    637 3    2.201380    2.201380   18.679329
    638 3    2.751725    2.751725   19.457634
    639 3    2.201380    2.201380   20.235939
    640 3    2.751725    2.751725   21.014245
    641 3    2.201380    2.201380   21.792550
    642 3    2.751725    2.751725   22.570856
    643 3    2.201380    2.201380   23.349161
    644 3    2.751725    2.751725   24.127466
    645 3    2.201380    2.201380   24.905772
    646 3    2.751725    2.751725   25.684077
    647 2    2.201380    3.302070    0.000000