
        2816 atoms

4 atom types

0.0         8.9796964 xlo xhi
0.0         8.9796964 ylo yhi
      -13.969129       45.399668 zlo zhi

Masses

1 1.000000
2 1.000000
3 1.000000
4 1.000000

Atoms
 
      1 2    0.000000    0.000000    0.000000
      2 1    0.561231    0.561231    0.793701
      3 1    0.000000    0.000000    1.587401
      4 1    0.561231    0.561231    2.381102
      5 1    0.000000    0.000000    3.174802
      6 1    0.561231    0.561231    3.968503
      7 1    0.000000    0.000000    4.762203
      8 1    0.561231    0.561231    5.555904
      9 1    0.000000    0.000000    6.349604
     10 1    0.561231    0.561231    7.143305
     11 1    0.000000    0.000000    7.937005
     12 1    0.561231    0.561231    8.730706
     13 1    0.000000    0.000000    9.524406
     14 1    0.561231    0.561231   10.318107
     15 1    0.000000    0.000000   11.111807
     16 1    0.561231    0.561231   11.905508
     17 1    0.000000    0.000000   12.699208
     18 1    0.561231    0.561231   13.492909
     19 1    0.000000    0.000000   14.286609
     20 1    0.561231    0.561231   15.080310
     21 1    0.000000    0.000000   15.874011
     22 1    0.561231    0.561231   16.667711
     23 1    0.000000    0.000000   17.461412
     24 1    0.561231    0.561231   18.255112
     25 1    0.000000    0.000000   19.048813
     26 1    0.561231    0.561231   19.842513
     27 1    0.000000    0.000000   20.636214
     28 1    0.561231    0.561231   21.429914
     29 1    0.000000    0.000000   22.223615
     30 1    0.561231    0.561231   23.017315
     31 1    0.000000    0.000000   23.811016
     32 1    0.561231    0.561231   24.604716
     33 1    0.000000    0.000000   25.398417
     34 1    0.561231    0.561231   26.192117
     35 1    0.000000    0.000000   26.985818
     36 1    0.561231    0.561231   27.779518
     37 1    0.000000    0.000000   28.573219
     38 1    0.561231    0.561231   29.366919
     39 1    0.000000    0.000000   30.160620
     40 1    0.561231    0.561231   30.954321
     41 1    0.000000    0.000000   31.748021
     42 1    0.561231    0.561231   32.541722
     43 1    0.000000    0.000000   33.335422
     44 4    0.561231    0.561231   34.129123
     45 2    0.000000    1.122462    0.000000
     46 1    0.561231    1.683693    0.793701
     47 1    0.000000    1.122462    1.587401
     48 1    0.561231    1.683693    2.381102
     49 1    0.000000    1.122462    3.174802
     50 1    0.561231    1.683693    3.968503
     51 1    0.000000    1.122462    4.762203
     52 1    0.561231    1.683693    5.555904
     53 1    0.000000    1.122462    6.349604
     54 1    0.561231    1.683693    7.143305
     55 1    0.000000    1.122462    7.937005
     56 1    0.561231    1.683693    8.730706
     57 1    0.000000    1.122462    9.524406
     58 1    0.561231    1.683693   10.318107
     59 1    0.000000    1.122462   11.111807
     60 1    0.561231    1.683693   11.905508
     61 1    0.000000    1.122462   12.699208
     62 1    0.561231    1.683693   13.492909
     63 1    0.000000    1.122462   14.286609
     64 1    0.561231    1.683693   15.080310
     65 1    0.000000    1.122462   15.874011
     66 1    0.561231    1.683693   16.667711
     67 1    0.000000    1.122462   17.461412
     68 1    0.561231    1.683693   18.255112
     69 1    0.000000    1.122462   19.048813
     70 1    0.561231    1.683693   19.842513
     71 1    0.000000    1.122462   20.636214
     72 1    0.561231    1.683693   21.429914
     73 1    0.000000    1.122462   22.223615
     74 1    0.561231    1.683693   23.017315
     75 1    0.000000    1.122462   23.811016
     76 1    0.561231    1.683693   24.604716
     77 1    0.000000    1.122462   25.398417
     78 1    0.561231    1.683693   26.192117
     79 1    0.000000    1.122462   26.985818
     80 1    0.561231    1.683693   27.779518
     81 1    0.000000    1.122462   28.573219
     82 1    0.561231    1.683693   29.366919
     83 1    0.000000    1.122462   30.160620
     84 1    0.561231    1.683693   30.954321
     85 1    0.000000    1.122462   31.748021
     86 1    0.561231    1.683693   32.541722
     87 1    0.000000    1.122462   33.335422
     88 4    0.561231    1.683693   34.129123
     89 2    0.000000    2.244924    0.000000
     90 1    0.561231    2.806155    0.793701
     91 1    0.000000    2.244924    1.587401
     92 1    0.561231    2.806155    2.381102
     93 1    0.000000    2.244924    3.174802
     94 1    0.561231    2.806155    3.968503
     95 1    0.000000    2.244924    4.762203
     96 1    0.561231    2.806155    5.555904
     97 1    0.000000    2.244924    6.349604
     98 1    0.561231    2.806155    7.143305
     99 1    0.000000    2.244924    7.937005
    100 1    0.561231    2.806155    8.730706
    101 1    0.000000    2.244924    9.524406
    102 1    0.561231    2.806155   10.318107
    103 1    0.000000    2.244924   11.111807
    104 1    0.561231    2.806155   11.905508
    105 1    0.000000    2.244924   12.699208
    106 1    0.561231    2.806155   13.492909
    107 1    0.000000    2.244924   14.286609
    108 1    0.561231    2.806155   15.080310
    109 1    0.000000    2.244924   15.874011
    110 1    0.561231    2.806155   16.667711
    111 1    0.000000    2.244924   17.461412
    112 1    0.561231    2.806155   18.255112
    113 1    0.000000    2.244924   19.048813
    114 1    0.561231    2.806155   19.842513
    115 1    0.000000    2.244924   20.636214
    116 1    0.561231    2.806155   21.429914
    117 1    0.000000    2.244924   22.223615
    118 1    0.561231    2.806155   23.017315
    119 1    0.000000    2.244924   23.811016
    120 1    0.561231    2.806155   24.604716
    121 1    0.000000    2.244924   25.398417
    122 1    0.561231    2.806155   26.192117
    123 1    0.000000    2.244924   26.985818
    124 1    0.561231    2.806155   27.779518
    125 1    0.000000    2.244924   28.573219
    126 1    0.561231    2.806155   29.366919
    127 1    0.000000    2.244924   30.160620
    128 1    0.561231    2.806155   30.954321
    129 1    0.000000    2.244924   31.748021
    130 1    0.561231    2.806155   32.541722
    131 1    0.000000    2.244924   33.335422
    132 4    0.561231    2.806155   34.129123
    133 2    0.000000    3.367386    0.000000
    134 1    0.561231    3.928617    0.793701
    135 1    0.000000    3.367386    1.587401
    136 1    0.561231    3.928617    2.381102
    137 1    0.000000    3.367386    3.174802
    138 1    0.561231    3.928617    3.968503
    139 1    0.000000    3.367386    4.762203
    140 1    0.561231    3.928617    5.555904
    141 1    0.000000    3.367386    6.349604
    142 1    0.561231    3.928617    7.143305
    143 1    0.000000    3.367386    7.937005
    144 1    0.561231    3.928617    8.730706
    145 1    0.000000    3.367386    9.524406
    146 1    0.561231    3.928617   10.318107
    147 1    0.000000    3.367386   11.111807
    148 1    0.561231    3.928617   11.905508
    149 1    0.000000    3.367386   12.699208
    150 1    0.561231    3.928617   13.492909
    151 1    0.000000    3.367386   14.286609
    152 1    0.561231    3.928617   15.080310
    153 1    0.000000    3.367386   15.874011
    154 1    0.561231    3.928617   16.667711
    155 1    0.000000    3.367386   17.461412
    156 1    0.561231    3.928617   18.255112
    157 1    0.000000    3.367386   19.048813
    158 1    0.561231    3.928617   19.842513
    159 1    0.000000    3.367386   20.636214
    160 1    0.561231    3.928617   21.429914
    161 1    0.000000    3.367386   22.223615
    162 1    0.561231    3.928617   23.017315
    163 1    0.000000    3.367386   23.811016
    164 1    0.561231    3.928617   24.604716
    165 1    0.000000    3.367386   25.398417
    166 1    0.561231    3.928617   26.192117
    167 1    0.000000    3.367386   26.985818
    168 1    0.561231    3.928617   27.779518
    169 1    0.000000    3.367386   28.573219
    170 1    0.561231    3.928617   29.366919
    171 1    0.000000    3.367386   30.160620
    172 1    0.561231    3.928617   30.954321
    173 1    0.000000    3.367386   31.748021
    174 1    0.561231    3.928617   32.541722
    175 1    0.000000    3.367386   33.335422
    176 4    0.561231    3.928617   34.129123
    177 2    0.000000    4.489848    0.000000
    178 1    0.561231    5.051079    0.793701
    179 1    0.000000    4.489848    1.587401
    180 1    0.561231    5.051079    2.381102
    181 1    0.000000    4.489848    3.174802
    182 1    0.561231    5.051079    3.968503
    183 1    0.000000    4.489848    4.762203
    184 1    0.561231    5.051079    5.555904
    185 1    0.000000    4.489848    6.349604
    186 1    0.561231    5.051079    7.143305
    187 1    0.000000    4.489848    7.937005
    188 1    0.561231    5.051079    8.730706
    189 1    0.000000    4.489848    9.524406
    190 1    0.561231    5.051079   10.318107
    191 1    0.000000    4.489848   11.111807
    192 1    0.561231    5.051079   11.905508
    193 1    0.000000    4.489848   12.699208
    194 1    0.561231    5.051079   13.492909
    195 1    0.000000    4.489848   14.286609
    196 1    0.561231    5.051079   15.080310
    197 1    0.000000    4.489848   15.874011
    198 1    0.561231    5.051079   16.667711
    199 1    0.000000    4.489848   17.461412
    200 1    0.561231    5.051079   18.255112
    201 1    0.000000    4.489848   19.048813
    202 1    0.561231    5.051079   19.842513
    203 1    0.000000    4.489848   20.636214
    204 1    0.561231    5.051079   21.429914
    205 1    0.000000    4.489848   22.223615
    206 1    0.561231    5.051079   23.017315
    207 1    0.000000    4.489848   23.811016
    208 1    0.561231    5.051079   24.604716
    209 1    0.000000    4.489848   25.398417
    210 1    0.561231    5.051079   26.192117
    211 1    0.000000    4.489848   26.985818
    212 1    0.561231    5.051079   27.779518
    213 1    0.000000    4.489848   28.573219
    214 1    0.561231    5.051079   29.366919
    215 1    0.000000    4.489848   30.160620
    216 1    0.561231    5.051079   30.954321
    217 1    0.000000    4.489848   31.748021
    218 1    0.561231    5.051079   32.541722
    219 1    0.000000    4.489848   33.335422
    220 4    0.561231    5.051079   34.129123
    221 2    0.000000    5.612310    0.000000
    222 1    0.561231    6.173541    0.793701
    223 1    0.000000    5.612310    1.587401
    224 1    0.561231    6.173541    2.381102
    225 1    0.000000    5.612310    3.174802
    226 1    0.561231    6.173541    3.968503
    227 1    0.000000    5.612310    4.762203
    228 1    0.561231    6.173541    5.555904
    229 1    0.000000    5.612310    6.349604
    230 1    0.561231    6.173541    7.143305
    231 1    0.000000    5.612310    7.937005
    232 1    0.561231    6.173541    8.730706
    233 1    0.000000    5.612310    9.524406
    234 1    0.561231    6.173541   10.318107
    235 1    0.000000    5.612310   11.111807
    236 1    0.561231    6.173541   11.905508
    237 1    0.000000    5.612310   12.699208
    238 1    0.561231    6.173541   13.492909
    239 1    0.000000    5.612310   14.286609
    240 1    0.561231    6.173541   15.080310
    241 1    0.000000    5.612310   15.874011
    242 1    0.561231    6.173541   16.667711
    243 1    0.000000    5.612310   17.461412
    244 1    0.561231    6.173541   18.255112
    245 1    0.000000    5.612310   19.048813
    246 1    0.561231    6.173541   19.842513
    247 1    0.000000    5.612310   20.636214
    248 1    0.561231    6.173541   21.429914
    249 1    0.000000    5.612310   22.223615
    250 1    0.561231    6.173541   23.017315
    251 1    0.000000    5.612310   23.811016
    252 1    0.561231    6.173541   24.604716
    253 1    0.000000    5.612310   25.398417
    254 1    0.561231    6.173541   26.192117
    255 1    0.000000    5.612310   26.985818
    256 1    0.561231    6.173541   27.779518
    257 1    0.000000    5.612310   28.573219
    258 1    0.561231    6.173541   29.366919
    259 1    0.000000    5.612310   30.160620
    260 1    0.561231    6.173541   30.954321
    261 1    0.000000    5.612310   31.748021
    262 1    0.561231    6.173541   32.541722
    263 1    0.000000    5.612310   33.335422
    264 4    0.561231    6.173541   34.129123
    265 2    0.000000    6.734772    0.000000
    266 1    0.561231    7.296003    0.793701
    267 1    0.000000    6.734772    1.587401
    268 1    0.561231    7.296003    2.381102
    269 1    0.000000    6.734772    3.174802
    270 1    0.561231    7.296003    3.968503
    271 1    0.000000    6.734772    4.762203
    272 1    0.561231    7.296003    5.555904
    273 1    0.000000    6.734772    6.349604
    274 1    0.561231    7.296003    7.143305
    275 1    0.000000    6.734772    7.937005
    276 1    0.561231    7.296003    8.730706
    277 1    0.000000    6.734772    9.524406
    278 1    0.561231    7.296003   10.318107
    279 1    0.000000    6.734772   11.111807
    280 1    0.561231    7.296003   11.905508
    281 1    0.000000    6.734772   12.699208
    282 1    0.561231    7.296003   13.492909
    283 1    0.000000    6.734772   14.286609
    284 1    0.561231    7.296003   15.080310
    285 1    0.000000    6.734772   15.874011
    286 1    0.561231    7.296003   16.667711
    287 1    0.000000    6.734772   17.461412
    288 1    0.561231    7.296003   18.255112
    289 1    0.000000    6.734772   19.048813
    290 1    0.561231    7.296003   19.842513
    291 1    0.000000    6.734772   20.636214
    292 1    0.561231    7.296003   21.429914
    293 1    0.000000    6.734772   22.223615
    294 1    0.561231    7.296003   23.017315
    295 1    0.000000    6.734772   23.811016
    296 1    0.561231    7.296003   24.604716
    297 1    0.000000    6.734772   25.398417
    298 1    0.561231    7.296003   26.192117
    299 1    0.000000    6.734772   26.985818
    300 1    0.561231    7.296003   27.779518
    301 1    0.000000    6.734772   28.573219
    302 1    0.561231    7.296003   29.366919
    303 1    0.000000    6.734772   30.160620
    304 1    0.561231    7.296003   30.954321
    305 1    0.000000    6.734772   31.748021
    306 1    0.561231    7.296003   32.541722
    307 1    0.000000    6.734772   33.335422
    308 4    0.561231    7.296003   34.129123
    309 2    0.000000    7.857234    0.000000
    310 1    0.561231    8.418465    0.793701
    311 1    0.000000    7.857234    1.587401
    312 1    0.561231    8.418465    2.381102
    313 1    0.000000    7.857234    3.174802
    314 1    0.561231    8.418465    3.968503
    315 1    0.000000    7.857234    4.762203
    316 1    0.561231    8.418465    5.555904
    317 1    0.000000    7.857234    6.349604
    318 1    0.561231    8.418465    7.143305
    319 1    0.000000    7.857234    7.937005
    320 1    0.561231    8.418465    8.730706
    321 1    0.000000    7.857234    9.524406
    322 1    0.561231    8.418465   10.318107
    323 1    0.000000    7.857234   11.111807
    324 1    0.561231    8.418465   11.905508
    325 1    0.000000    7.857234   12.699208
    326 1    0.561231    8.418465   13.492909
    327 1    0.000000    7.857234   14.286609
    328 1    0.561231    8.418465   15.080310
    329 1    0.000000    7.857234   15.874011
    330 1    0.561231    8.418465   16.667711
    331 1    0.000000    7.857234   17.461412
    332 1    0.561231    8.418465   18.255112
    333 1    0.000000    7.857234   19.048813
    334 1    0.561231    8.418465   19.842513
    335 1    0.000000    7.857234   20.636214
    336 1    0.561231    8.418465   21.429914
    337 1    0.000000    7.857234   22.223615
    338 1    0.561231    8.418465   23.017315
    339 1    0.000000    7.857234   23.811016
    340 1    0.561231    8.418465   24.604716
    341 1    0.000000    7.857234   25.398417
    342 1    0.561231    8.418465   26.192117
    343 1    0.000000    7.857234   26.985818
    344 1    0.561231    8.418465   27.779518
    345 1    0.000000    7.857234   28.573219
    346 1    0.561231    8.418465   29.366919
    347 1    0.000000    7.857234   30.160620
    348 1    0.561231    8.418465   30.954321
    349 1    0.000000    7.857234   31.748021
    350 1    0.561231    8.418465   32.541722
    351 1    0.000000    7.857234   33.335422
    352 4    0.561231    8.418465   34.129123
    353 2    1.122462    0.000000    0.000000
    354 1    1.683693    0.561231    0.793701
    355 1    1.122462    0.000000    1.587401
    356 1    1.683693    0.561231    2.381102
    357 1    1.122462    0.000000    3.174802
    358 1    1.683693    0.561231    3.968503
    359 1    1.122462    0.000000    4.762203
    360 1    1.683693    0.561231    5.555904
    361 1    1.122462    0.000000    6.349604
    362 1    1.683693    0.561231    7.143305
    363 1    1.122462    0.000000    7.937005
    364 1    1.683693    0.561231    8.730706
    365 1    1.122462    0.000000    9.524406
    366 1    1.683693    0.561231   10.318107
    367 1    1.122462    0.000000   11.111807
    368 1    1.683693    0.561231   11.905508
    369 1    1.122462    0.000000   12.699208
    370 1    1.683693    0.561231   13.492909
    371 1    1.122462    0.000000   14.286609
    372 1    1.683693    0.561231   15.080310
    373 1    1.122462    0.000000   15.874011
    374 1    1.683693    0.561231   16.667711
    375 1    1.122462    0.000000   17.461412
    376 1    1.683693    0.561231   18.255112
    377 1    1.122462    0.000000   19.048813
    378 1    1.683693    0.561231   19.842513
    379 1    1.122462    0.000000   20.636214
    380 1    1.683693    0.561231   21.429914
    381 1    1.122462    0.000000   22.223615
    382 1    1.683693    0.561231   23.017315
    383 1    1.122462    0.000000   23.811016
    384 1    1.683693    0.561231   24.604716
    385 1    1.122462    0.000000   25.398417
    386 1    1.683693    0.561231   26.192117
    387 1    1.122462    0.000000   26.985818
    388 1    1.683693    0.561231   27.779518
    389 1    1.122462    0.000000   28.573219
    390 1    1.683693    0.561231   29.366919
    391 1    1.122462    0.000000   30.160620
    392 1    1.683693    0.561231   30.954321
    393 1    1.122462    0.000000   31.748021
    394 1    1.683693    0.561231   32.541722
    395 1    1.122462    0.000000   33.335422
    396 4    1.683693    0.561231   34.129123
    397 2    1.122462    1.122462    0.000000
    398 1    1.683693    1.683693    0.793701
    399 1    1.122462    1.122462    1.587401
    400 1    1.683693    1.683693    2.381102
    401 1    1.122462    1.122462    3.174802
    402 1    1.683693    1.683693    3.968503
    403 1    1.122462    1.122462    4.762203
    404 1    1.683693    1.683693    5.555904
    405 1    1.122462    1.122462    6.349604
    406 1    1.683693    1.683693    7.143305
    407 1    1.122462    1.122462    7.937005
    408 1    1.683693    1.683693    8.730706
    409 1    1.122462    1.122462    9.524406
    410 1    1.683693    1.683693   10.318107
    411 1    1.122462    1.122462   11.111807
    412 1    1.683693    1.683693   11.905508
    413 1    1.122462    1.122462   12.699208
    414 1    1.683693    1.683693   13.492909
    415 1    1.122462    1.122462   14.286609
    416 1    1.683693    1.683693   15.080310
    417 1    1.122462    1.122462   15.874011
    418 1    1.683693    1.683693   16.667711
    419 1    1.122462    1.122462   17.461412
    420 1    1.683693    1.683693   18.255112
    421 1    1.122462    1.122462   19.048813
    422 1    1.683693    1.683693   19.842513
    423 1    1.122462    1.122462   20.636214
    424 1    1.683693    1.683693   21.429914
    425 1    1.122462    1.122462   22.223615
    426 1    1.683693    1.683693   23.017315
    427 1    1.122462    1.122462   23.811016
    428 1    1.683693    1.683693   24.604716
    429 1    1.122462    1.122462   25.398417
    430 1    1.683693    1.683693   26.192117
    431 1    1.122462    1.122462   26.985818
    432 1    1.683693    1.683693   27.779518
    433 1    1.122462    1.122462   28.573219
    434 1    1.683693    1.683693   29.366919
    435 1    1.122462    1.122462   30.160620
    436 1    1.683693    1.683693   30.954321
    437 1    1.122462    1.122462   31.748021
    438 1    1.683693    1.683693   32.541722
    439 1    1.122462    1.122462   33.335422
    440 4    1.683693    1.683693   34.129123
    441 2    1.122462    2.244924    0.000000
    442 1    1.683693    2.806155    0.793701
    443 1    1.122462    2.244924    1.587401
    444 1    1.683693    2.806155    2.381102
    445 1    1.122462    2.244924    3.174802
    446 1    1.683693    2.806155    3.968503
    447 1    1.122462    2.244924    4.762203
    448 1    1.683693    2.806155    5.555904
    449 1    1.122462    2.244924    6.349604
    450 1    1.683693    2.806155    7.143305
    451 1    1.122462    2.244924    7.937005
    452 1    1.683693    2.806155    8.730706
    453 1    1.122462    2.244924    9.524406
    454 1    1.683693    2.806155   10.318107
    455 1    1.122462    2.244924   11.111807
    456 1    1.683693    2.806155   11.905508
    457 1    1.122462    2.244924   12.699208
    458 1    1.683693    2.806155   13.492909
    459 1    1.122462    2.244924   14.286609
    460 1    1.683693    2.806155   15.080310
    461 1    1.122462    2.244924   15.874011
    462 1    1.683693    2.806155   16.667711
    463 1    1.122462    2.244924   17.461412
    464 1    1.683693    2.806155   18.255112
    465 1    1.122462    2.244924   19.048813
    466 1    1.683693    2.806155   19.842513
    467 1    1.122462    2.244924   20.636214
    468 1    1.683693    2.806155   21.429914
    469 1    1.122462    2.244924   22.223615
    470 1    1.683693    2.806155   23.017315
    471 1    1.122462    2.244924   23.811016
    472 1    1.683693    2.806155   24.604716
    473 1    1.122462    2.244924   25.398417
    474 1    1.683693    2.806155   26.192117
    475 1    1.122462    2.244924   26.985818
    476 1    1.683693    2.806155   27.779518
    477 1    1.122462    2.244924   28.573219
    478 1    1.683693    2.806155   29.366919
    479 1    1.122462    2.244924   30.160620
    480 1    1.683693    2.806155   30.954321
    481 1    1.122462    2.244924   31.748021
    482 1    1.683693    2.806155   32.541722
    483 1    1.122462    2.244924   33.335422
    484 4    1.683693    2.806155   34.129123
    485 2    1.122462    3.367386    0.000000
    486 1    1.683693    3.928617    0.793701
    487 1    1.122462    3.367386    1.587401
    488 1    1.683693    3.928617    2.381102
    489 1    1.122462    3.367386    3.174802
    490 1    1.683693    3.928617    3.968503
    491 1    1.122462    3.367386    4.762203
    492 1    1.683693    3.928617    5.555904
    493 1    1.122462    3.367386    6.349604
    494 1    1.683693    3.928617    7.143305
    495 1    1.122462    3.367386    7.937005
    496 1    1.683693    3.928617    8.730706
    497 1    1.122462    3.367386    9.524406
    498 1    1.683693    3.928617   10.318107
    499 1    1.122462    3.367386   11.111807
    500 1    1.683693    3.928617   11.905508
    501 1    1.122462    3.367386   12.699208
    502 1    1.683693    3.928617   13.492909
    503 1    1.122462    3.367386   14.286609
    504 1    1.683693    3.928617   15.080310
    505 1    1.122462    3.367386   15.874011
    506 1    1.683693    3.928617   16.667711
    507 1    1.122462    3.367386   17.461412
    508 1    1.683693    3.928617   18.255112
    509 1    1.122462    3.367386   19.048813
    510 1    1.683693    3.928617   19.842513
    511 1    1.122462    3.367386   20.636214
    512 1    1.683693    3.928617   21.429914
    513 1    1.122462    3.367386   22.223615
    514 1    1.683693    3.928617   23.017315
    515 1    1.122462    3.367386   23.811016
    516 1    1.683693    3.928617   24.604716
    517 1    1.122462    3.367386   25.398417
    518 1    1.683693    3.928617   26.192117
    519 1    1.122462    3.367386   26.985818
    520 1    1.683693    3.928617   27.779518
    521 1    1.122462    3.367386   28.573219
    522 1    1.683693    3.928617   29.366919
    523 1    1.122462    3.367386   30.160620
    524 1    1.683693    3.928617   30.954321
    525 1    1.122462    3.367386   31.748021
    526 1    1.683693    3.928617   32.541722
    527 1    1.122462    3.367386   33.335422
    528 4    1.683693    3.928617   34.129123
    529 2    1.122462    4.489848    0.000000
    530 1    1.683693    5.051079    0.793701
    531 1    1.122462    4.489848    1.587401
    532 1    1.683693    5.051079    2.381102
    533 1    1.122462    4.489848    3.174802
    534 1    1.683693    5.051079    3.968503
    535 1    1.122462    4.489848    4.762203
    536 1    1.683693    5.051079    5.555904
    537 1    1.122462    4.489848    6.349604
    538 1    1.683693    5.051079    7.143305
    539 1    1.122462    4.489848    7.937005
    540 1    1.683693    5.051079    8.730706
    541 1    1.122462    4.489848    9.524406
    542 1    1.683693    5.051079   10.318107
    543 1    1.122462    4.489848   11.111807
    544 1    1.683693    5.051079   11.905508
    545 1    1.122462    4.489848   12.699208
    546 1    1.683693    5.051079   13.492909
    547 1    1.122462    4.489848   14.286609
    548 1    1.683693    5.051079   15.080310
    549 1    1.122462    4.489848   15.874011
    550 1    1.683693    5.051079   16.667711
    551 1    1.122462    4.489848   17.461412
    552 1    1.683693    5.051079   18.255112
    553 1    1.122462    4.489848   19.048813
    554 1    1.683693    5.051079   19.842513
    555 1    1.122462    4.489848   20.636214
    556 1    1.683693    5.051079   21.429914
    557 1    1.122462    4.489848   22.223615
    558 1    1.683693    5.051079   23.017315
    559 1    1.122462    4.489848   23.811016
    560 1    1.683693    5.051079   24.604716
    561 1    1.122462    4.489848   25.398417
    562 1    1.683693    5.051079   26.192117
    563 1    1.122462    4.489848   26.985818
    564 1    1.683693    5.051079   27.779518
    565 1    1.122462    4.489848   28.573219
    566 1    1.683693    5.051079   29.366919
    567 1    1.122462    4.489848   30.160620
    568 1    1.683693    5.051079   30.954321
    569 1    1.122462    4.489848   31.748021
    570 1    1.683693    5.051079   32.541722
    571 1    1.122462    4.489848   33.335422
    572 4    1.683693    5.051079   34.129123
    573 2    1.122462    5.612310    0.000000
    574 1    1.683693    6.173541    0.793701
    575 1    1.122462    5.612310    1.587401
    576 1    1.683693    6.173541    2.381102
    577 1    1.122462    5.612310    3.174802
    578 1    1.683693    6.173541    3.968503
    579 1    1.122462    5.612310    4.762203
    580 1    1.683693    6.173541    5.555904
    581 1    1.122462    5.612310    6.349604
    582 1    1.683693    6.173541    7.143305
    583 1    1.122462    5.612310    7.937005
    584 1    1.683693    6.173541    8.730706
    585 1    1.122462    5.612310    9.524406
    586 1    1.683693    6.173541   10.318107
    587 1    1.122462    5.612310   11.111807
    588 1    1.683693    6.173541   11.905508
    589 1    1.122462    5.612310   12.699208
    590 1    1.683693    6.173541   13.492909
    591 1    1.122462    5.612310   14.286609
    592 1    1.683693    6.173541   15.080310
    593 1    1.122462    5.612310   15.874011
    594 1    1.683693    6.173541   16.667711
    595 1    1.122462    5.612310   17.461412
    596 1    1.683693    6.173541   18.255112
    597 1    1.122462    5.612310   19.048813
    598 1    1.683693    6.173541   19.842513
    599 1    1.122462    5.612310   20.636214
    600 1    1.683693    6.173541   21.429914
    601 1    1.122462    5.612310   22.223615
    602 1    1.683693    6.173541   23.017315
    603 1    1.122462    5.612310   23.811016
    604 1    1.683693    6.173541   24.604716
    605 1    1.122462    5.612310   25.398417
    606 1    1.683693    6.173541   26.192117
    607 1    1.122462    5.612310   26.985818
    608 1    1.683693    6.173541   27.779518
    609 1    1.122462    5.612310   28.573219
    610 1    1.683693    6.173541   29.366919
    611 1    1.122462    5.612310   30.160620
    612 1    1.683693    6.173541   30.954321
    613 1    1.122462    5.612310   31.748021
    614 1    1.683693    6.173541   32.541722
    615 1    1.122462    5.612310   33.335422
    616 4    1.683693    6.173541   34.129123
    617 2    1.122462    6.734772    0.000000
    618 1    1.683693    7.296003    0.793701
    619 1    1.122462    6.734772    1.587401
    620 1    1.683693    7.296003    2.381102
    621 1    1.122462    6.734772    3.174802
    622 1    1.683693    7.296003    3.968503
    623 1    1.122462    6.734772    4.762203
    624 1    1.683693    7.296003    5.555904
    625 1    1.122462    6.734772    6.349604
    626 1    1.683693    7.296003    7.143305
    627 1    1.122462    6.734772    7.937005
    628 1    1.683693    7.296003    8.730706
    629 1    1.122462    6.734772    9.524406
    630 1    1.683693    7.296003   10.318107
    631 1    1.122462    6.734772   11.111807
    632 1    1.683693    7.296003   11.905508
    633 1    1.122462    6.734772   12.699208
    634 1    1.683693    7.296003   13.492909
    635 1    1.122462    6.734772   14.286609
    636 1    1.683693    7.296003   15.080310
    637 1    1.122462    6.734772   15.874011
    638 1    1.683693    7.296003   16.667711
    639 1    1.122462    6.734772   17.461412
    640 1    1.683693    7.296003   18.255112
    641 1    1.122462    6.734772   19.048813
    642 1    1.683693    7.296003   19.842513
    643 1    1.122462    6.734772   20.636214
    644 1    1.683693    7.296003   21.429914
    645 1    1.122462    6.734772   22.223615
    646 1    1.683693    7.296003   23.017315
    647 1    1.122462    6.734772   23.811016