
         500 atoms

4 atom types

0.0         5.6123102 xlo xhi
0.0         5.6123102 ylo yhi
      -3.1748022       17.461412 zlo zhi

Masses

1 1.000000
2 1.000000
3 1.000000
4 1.000000

Atoms
 
   1  2  0.0000000  0.0000000  0.0000000
   2  1  0.5612  0.5612  0.7937 
   3  1  0.0000  0.0000  1.5874 
   4  1  0.5612  0.5612  2.3811 
   5  1  0.0000  0.0000  3.1748 
   6  1  0.5612  0.5612  3.9685 
   7  1  0.0000  0.0000  4.7622 
   8  1  0.5612  0.5612  5.5559 
   9  1  0.0000  0.0000  6.3496 
  10  1  0.5612  0.5612  7.1433 
  11  1  0.0000  0.0000  7.9370 
  12  1  0.5612  0.5612  8.7307 
  13  1  0.0000  0.0000  9.5244 
  14  1  0.5612  0.5612 10.3181 
  15  1  0.0000  0.0000 11.1118 
  16  1  0.5612  0.5612 11.9055 
  17  4  0.0000  0.0000 12.6992 
  18  3  0.5612  0.5612 13.4929 
  19  3  0.0000  0.0000 14.2866 
  20  3  0.5612  0.5612 15.0803 
  21  2  0.0000000  1.1224620  0.0000000
  22  1  0.5612  1.6837  0.7937 
  23  1  0.0000  1.1225  1.5874 
  24  1  0.5612  1.6837  2.3811 
  25  1  0.0000  1.1225  3.1748 
  26  1  0.5612  1.6837  3.9685 
  27  1  0.0000  1.1225  4.7622 
  28  1  0.5612  1.6837  5.5559 
  29  1  0.0000  1.1225  6.3496 
  30  1  0.5612  1.6837  7.1433 
  31  1  0.0000  1.1225  7.9370 
  32  1  0.5612  1.6837  8.7307 
  33  1  0.0000  1.1225  9.5244 
  34  1  0.5612  1.6837 10.3181 
  35  1  0.0000  1.1225 11.1118 
  36  1  0.5612  1.6837 11.9055 
  37  4  0.0000  1.1225 12.6992 
  38  3  0.5612  1.6837 13.4929 
  39  3  0.0000  1.1225 14.2866 
  40  3  0.5612  1.6837 15.0803 
  41  2  0.0000000  2.2449241  0.0000000
  42  1  0.5612  2.8062  0.7937 
  43  1  0.0000  2.2449  1.5874 
  44  1  0.5612  2.8062  2.3811 
  45  1  0.0000  2.2449  3.1748 
  46  1  0.5612  2.8062  3.9685 
  47  1  0.0000  2.2449  4.7622 
  48  1  0.5612  2.8062  5.5559 
  49  1  0.0000  2.2449  6.3496 
  50  1  0.5612  2.8062  7.1433 
  51  1  0.0000  2.2449  7.9370 
  52  1  0.5612  2.8062  8.7307 
  53  1  0.0000  2.2449  9.5244 
  54  1  0.5612  2.8062 10.3181 
  55  1  0.0000  2.2449 11.1118 
  56  1  0.5612  2.8062 11.9055 
  57  4  0.0000  2.2449 12.6992 
  58  3  0.5612  2.8062 13.4929 
  59  3  0.0000  2.2449 14.2866 
  60  3  0.5612  2.8062 15.0803 
  61  2  0.0000000  3.3673861  0.0000000
  62  1  0.5612  3.9286  0.7937 
  63  1  0.0000  3.3674  1.5874 
  64  1  0.5612  3.9286  2.3811 
  65  1  0.0000  3.3674  3.1748 
  66  1  0.5612  3.9286  3.9685 
  67  1  0.0000  3.3674  4.7622 
  68  1  0.5612  3.9286  5.5559 
  69  1  0.0000  3.3674  6.3496 
  70  1  0.5612  3.9286  7.1433 
  71  1  0.0000  3.3674  7.9370 
  72  1  0.5612  3.9286  8.7307 
  73  1  0.0000  3.3674  9.5244 
  74  1  0.5612  3.9286 10.3181 
  75  1  0.0000  3.3674 11.1118 
  76  1  0.5612  3.9286 11.9055 
  77  4  0.0000  3.3674 12.6992 
  78  3  0.5612  3.9286 13.4929 
  79  3  0.0000  3.3674 14.2866 
  80  3  0.5612  3.9286 15.0803 
  81  2  0.0000000  4.4898482  0.0000000
  82  1  0.5612  5.0511  0.7937 
  83  1  0.0000  4.4898  1.5874 
  84  1  0.5612  5.0511  2.3811 
  85  1  0.0000  4.4898  3.1748 
  86  1  0.5612  5.0511  3.9685 
  87  1  0.0000  4.4898  4.7622 
  88  1  0.5612  5.0511  5.5559 
  89  1  0.0000  4.4898  6.3496 
  90  1  0.5612  5.0511  7.1433 
  91  1  0.0000  4.4898  7.9370 
  92  1  0.5612  5.0511  8.7307 
  93  1  0.0000  4.4898  9.5244 
  94  1  0.5612  5.0511 10.3181 
  95  1  0.0000  4.4898 11.1118 
  96  1  0.5612  5.0511 11.9055 
  97  4  0.0000  4.4898 12.6992 
  98  3  0.5612  5.0511 13.4929 
  99  3  0.0000  4.4898 14.2866 
 100  3  0.5612  5.0511 15.0803 
 101  2  1.1224620  0.0000000  0.0000000
 102  1  1.6837  0.5612  0.7937 
 103  1  1.1225  0.0000  1.5874 
 104  1  1.6837  0.5612  2.3811 
 105  1  1.1225  0.0000  3.1748 
 106  1  1.6837  0.5612  3.9685 
 107  1  1.1225  0.0000  4.7622 
 108  1  1.6837  0.5612  5.5559 
 109  1  1.1225  0.0000  6.3496 
 110  1  1.6837  0.5612  7.1433 
 111  1  1.1225  0.0000  7.9370 
 112  1  1.6837  0.5612  8.7307 
 113  1  1.1225  0.0000  9.5244 
 114  1  1.6837  0.5612 10.3181 
 115  1  1.1225  0.0000 11.1118 
 116  1  1.6837  0.5612 11.9055 
 117  4  1.1225  0.0000 12.6992 
 118  3  1.6837  0.5612 13.4929 
 119  3  1.1225  0.0000 14.2866 
 120  3  1.6837  0.5612 15.0803 
 121  2  1.1224620  1.1224620  0.0000000
 122  1  1.6837  1.6837  0.7937 
 123  1  1.1225  1.1225  1.5874 
 124  1  1.6837  1.6837  2.3811 
 125  1  1.1225  1.1225  3.1748 
 126  1  1.6837  1.6837  3.9685 
 127  1  1.1225  1.1225  4.7622 
 128  1  1.6837  1.6837  5.5559 
 129  1  1.1225  1.1225  6.3496 
 130  1  1.6837  1.6837  7.1433 
 131  1  1.1225  1.1225  7.9370 
 132  1  1.6837  1.6837  8.7307 
 133  1  1.1225  1.1225  9.5244 
 134  1  1.6837  1.6837 10.3181 
 135  1  1.1225  1.1225 11.1118 
 136  1  1.6837  1.6837 11.9055 
 137  4  1.1225  1.1225 12.6992 
 138  3  1.6837  1.6837 13.4929 
 139  3  1.1225  1.1225 14.2866 
 140  3  1.6837  1.6837 15.0803 
 141  2  1.1224620  2.2449241  0.0000000
 142  1  1.6837  2.8062  0.7937 
 143  1  1.1225  2.2449  1.5874 
 144  1  1.6837  2.8062  2.3811 
 145  1  1.1225  2.2449  3.1748 
 146  1  1.6837  2.8062  3.9685 
 147  1  1.1225  2.2449  4.7622 
 148  1  1.6837  2.8062  5.5559 
 149  1  1.1225  2.2449  6.3496 
 150  1  1.6837  2.8062  7.1433 
 151  1  1.1225  2.2449  7.9370 
 152  1  1.6837  2.8062  8.7307 
 153  1  1.1225  2.2449  9.5244 
 154  1  1.6837  2.8062 10.3181 
 155  1  1.1225  2.2449 11.1118 
 156  1  1.6837  2.8062 11.9055 
 157  4  1.1225  2.2449 12.6992 
 158  3  1.6837  2.8062 13.4929 
 159  3  1.1225  2.2449 14.2866 
 160  3  1.6837  2.8062 15.0803 
 161  2  1.1224620  3.3673861  0.0000000
 162  1  1.6837  3.9286  0.7937 
 163  1  1.1225  3.3674  1.5874 
 164  1  1.6837  3.9286  2.3811 
 165  1  1.1225  3.3674  3.1748 
 166  1  1.6837  3.9286  3.9685 
 167  1  1.1225  3.3674  4.7622 
 168  1  1.6837  3.9286  5.5559 
 169  1  1.1225  3.3674  6.3496 
 170  1  1.6837  3.9286  7.1433 
 171  1  1.1225  3.3674  7.9370 
 172  1  1.6837  3.9286  8.7307 
 173  1  1.1225  3.3674  9.5244 
 174  1  1.6837  3.9286 10.3181 
 175  1  1.1225  3.3674 11.1118 
 176  1  1.6837  3.9286 11.9055 
 177  4  1.1225  3.3674 12.6992 
 178  3  1.6837  3.9286 13.4929 
 179  3  1.1225  3.3674 14.2866 
 180  3  1.6837  3.9286 15.0803 
 181  2  1.1224620  4.4898482  0.0000000
 182  1  1.6837  5.0511  0.7937 
 183  1  1.1225  4.4898  1.5874 
 184  1  1.6837  5.0511  2.3811 
 185  1  1.1225  4.4898  3.1748 
 186  1  1.6837  5.0511  3.9685 
 187  1  1.1225  4.4898  4.7622 
 188  1  1.6837  5.0511  5.5559 
 189  1  1.1225  4.4898  6.3496 
 190  1  1.6837  5.0511  7.1433 
 191  1  1.1225  4.4898  7.9370 
 192  1  1.6837  5.0511  8.7307 
 193  1  1.1225  4.4898  9.5244 
 194  1  1.6837  5.0511 10.3181 
 195  1  1.1225  4.4898 11.1118 
 196  1  1.6837  5.0511 11.9055 
 197  4  1.1225  4.4898 12.6992 
 198  3  1.6837  5.0511 13.4929 
 199  3  1.1225  4.4898 14.2866 
 200  3  1.6837  5.0511 15.0803 
 201  2  2.2449241  0.0000000  0.0000000
 202  1  2.8062  0.5612  0.7937 
 203  1  2.2449  0.0000  1.5874 
 204  1  2.8062  0.5612  2.3811 
 205  1  2.2449  0.0000  3.1748 
 206  1  2.8062  0.5612  3.9685 
 207  1  2.2449  0.0000  4.7622 
 208  1  2.8062  0.5612  5.5559 
 209  1  2.2449  0.0000  6.3496 
 210  1  2.8062  0.5612  7.1433 
 211  1  2.2449  0.0000  7.9370 
 212  1  2.8062  0.5612  8.7307 
 213  1  2.2449  0.0000  9.5244 
 214  1  2.8062  0.5612 10.3181 
 215  1  2.2449  0.0000 11.1118 
 216  1  2.8062  0.5612 11.9055 
 217  4  2.2449  0.0000 12.6992 
 218  3  2.8062  0.5612 13.4929 
 219  3  2.2449  0.0000 14.2866 
 220  3  2.8062  0.5612 15.0803 
 221  2  2.2449241  1.1224620  0.0000000
 222  1  2.8062  1.6837  0.7937 
 223  1  2.2449  1.1225  1.5874 
 224  1  2.8062  1.6837  2.3811 
 225  1  2.2449  1.1225  3.1748 
 226  1  2.8062  1.6837  3.9685 
 227  1  2.2449  1.1225  4.7622 
 228  1  2.8062  1.6837  5.5559 
 229  1  2.2449  1.1225  6.3496 
 230  1  2.8062  1.6837  7.1433 
 231  1  2.2449  1.1225  7.9370 
 232  1  2.8062  1.6837  8.7307 
 233  1  2.2449  1.1225  9.5244 
 234  1  2.8062  1.6837 10.3181 
 235  1  2.2449  1.1225 11.1118 
 236  1  2.8062  1.6837 11.9055 
 237  4  2.2449  1.1225 12.6992 
 238  3  2.8062  1.6837 13.4929 
 239  3  2.2449  1.1225 14.2866 
 240  3  2.8062  1.6837 15.0803 
 241  2  2.2449241  2.2449241  0.0000000
 242  1  2.8062  2.8062  0.7937 
 243  1  2.2449  2.2449  1.5874 
 244  1  2.8062  2.8062  2.3811 
 245  1  2.2449  2.2449  3.1748 
 246  1  2.8062  2.8062  3.9685 
 247  1  2.2449  2.2449  4.7622 
 248  1  2.8062  2.8062  5.5559 
 249  1  2.2449  2.2449  6.3496 
 250  1  2.8062  2.8062  7.1433 
 251  1  2.2449  2.2449  7.9370 
 252  1  2.8062  2.8062  8.7307 
 253  1  2.2449  2.2449  9.5244 
 254  1  2.8062  2.8062 10.3181 
 255  1  2.2449  2.2449 11.1118 
 256  1  2.8062  2.8062 11.9055 
 257  4  2.2449  2.2449 12.6992 
 258  3  2.8062  2.8062 13.4929 
 259  3  2.2449  2.2449 14.2866 
 260  3  2.8062  2.8062 15.0803 
 261  2  2.2449241  3.3673861  0.0000000
 262  1  2.8062  3.9286  0.7937 
 263  1  2.2449  3.3674  1.5874 
 264  1  2.8062  3.9286  2.3811 
 265  1  2.2449  3.3674  3.1748 
 266  1  2.8062  3.9286  3.9685 
 267  1  2.2449  3.3674  4.7622 
 268  1  2.8062  3.9286  5.5559 
 269  1  2.2449  3.3674  6.3496 
 270  1  2.8062  3.9286  7.1433 
 271  1  2.2449  3.3674  7.9370 
 272  1  2.8062  3.9286  8.7307 
 273  1  2.2449  3.3674  9.5244 
 274  1  2.8062  3.9286 10.3181 
 275  1  2.2449  3.3674 11.1118 
 276  1  2.8062  3.9286 11.9055 
 277  4  2.2449  3.3674 12.6992 
 278  3  2.8062  3.9286 13.4929 
 279  3  2.2449  3.3674 14.2866 
 280  3  2.8062  3.9286 15.0803 
 281  2  2.2449241  4.4898482  0.0000000
 282  1  2.8062  5.0511  0.7937 
 283  1  2.2449  4.4898  1.5874 
 284  1  2.8062  5.0511  2.3811 
 285  1  2.2449  4.4898  3.1748 
 286  1  2.8062  5.0511  3.9685 
 287  1  2.2449  4.4898  4.7622 
 288  1  2.8062  5.0511  5.5559 
 289  1  2.2449  4.4898  6.3496 
 290  1  2.8062  5.0511  7.1433 
 291  1  2.2449  4.4898  7.9370 
 292  1  2.8062  5.0511  8.7307 
 293  1  2.2449  4.4898  9.5244 
 294  1  2.8062  5.0511 10.3181 
 295  1  2.2449  4.4898 11.1118 
 296  1  2.8062  5.0511 11.9055 
 297  4  2.2449  4.4898 12.6992 
 298  3  2.8062  5.0511 13.4929 
 299  3  2.2449  4.4898 14.2866 
 300  3  2.8062  5.0511 15.0803 
 301  2  3.3673861  0.0000000  0.0000000
 302  1  3.9286  0.5612  0.7937 
 303  1  3.3674  0.0000  1.5874 
 304  1  3.9286  0.5612  2.3811 
 305  1  3.3674  0.0000  3.1748 
 306  1  3.9286  0.5612  3.9685 
 307  1  3.3674  0.0000  4.7622 
 308  1  3.9286  0.5612  5.5559 
 309  1  3.3674  0.0000  6.3496 
 310  1  3.9286  0.5612  7.1433 
 311  1  3.3674  0.0000  7.9370 
 312  1  3.9286  0.5612  8.7307 
 313  1  3.3674  0.0000  9.5244 
 314  1  3.9286  0.5612 10.3181 
 315  1  3.3674  0.0000 11.1118 
 316  1  3.9286  0.5612 11.9055 
 317  4  3.3674  0.0000 12.6992 
 318  3  3.9286  0.5612 13.4929 
 319  3  3.3674  0.0000 14.2866 
 320  3  3.9286  0.5612 15.0803 
 321  2  3.3673861  1.1224620  0.0000000
 322  1  3.9286  1.6837  0.7937 
 323  1  3.3674  1.1225  1.5874 
 324  1  3.9286  1.6837  2.3811 
 325  1  3.3674  1.1225  3.1748 
 326  1  3.9286  1.6837  3.9685 
 327  1  3.3674  1.1225  4.7622 
 328  1  3.9286  1.6837  5.5559 
 329  1  3.3674  1.1225  6.3496 
 330  1  3.9286  1.6837  7.1433 
 331  1  3.3674  1.1225  7.9370 
 332  1  3.9286  1.6837  8.7307 
 333  1  3.3674  1.1225  9.5244 
 334  1  3.9286  1.6837 10.3181 
 335  1  3.3674  1.1225 11.1118 
 336  1  3.9286  1.6837 11.9055 
 337  4  3.3674  1.1225 12.6992 
 338  3  3.9286  1.6837 13.4929 
 339  3  3.3674  1.1225 14.2866 
 340  3  3.9286  1.6837 15.0803 
 341  2  3.3673861  2.2449241  0.0000000
 342  1  3.9286  2.8062  0.7937 
 343  1  3.3674  2.2449  1.5874 
 344  1  3.9286  2.8062  2.3811 
 345  1  3.3674  2.2449  3.1748 
 346  1  3.9286  2.8062  3.9685 
 347  1  3.3674  2.2449  4.7622 
 348  1  3.9286  2.8062  5.5559 
 349  1  3.3674  2.2449  6.3496 
 350  1  3.9286  2.8062  7.1433 
 351  1  3.3674  2.2449  7.9370 
 352  1  3.9286  2.8062  8.7307 
 353  1  3.3674  2.2449  9.5244 
 354  1  3.9286  2.8062 10.3181 
 355  1  3.3674  2.2449 11.1118 
 356  1  3.9286  2.8062 11.9055 
 357  4  3.3674  2.2449 12.6992 
 358  3  3.9286  2.8062 13.4929 
 359  3  3.3674  2.2449 14.2866 
 360  3  3.9286  2.8062 15.0803 
 361  2  3.3673861  3.3673861  0.0000000
 362  1  3.9286  3.9286  0.7937 
 363  1  3.3674  3.3674  1.5874 
 364  1  3.9286  3.9286  2.3811 
 365  1  3.3674  3.3674  3.1748 
 366  1  3.9286  3.9286  3.9685 
 367  1  3.3674  3.3674  4.7622 
 368  1  3.9286  3.9286  5.5559 
 369  1  3.3674  3.3674  6.3496 
 370  1  3.9286  3.9286  7.1433 
 371  1  3.3674  3.3674  7.9370 
 372  1  3.9286  3.9286  8.7307 
 373  1  3.3674  3.3674  9.5244 
 374  1  3.9286  3.9286 10.3181 
 375  1  3.3674  3.3674 11.1118 
 376  1  3.9286  3.9286 11.9055 
 377  4  3.3674  3.3674 12.6992 
 378  3  3.9286  3.9286 13.4929 
 379  3  3.3674  3.3674 14.2866 
 380  3  3.9286  3.9286 15.0803 
 381  2  3.3673861  4.4898482  0.0000000
 382  1  3.9286  5.0511  0.7937 
 383  1  3.3674  4.4898  1.5874 
 384  1  3.9286  5.0511  2.3811 
 385  1  3.3674  4.4898  3.1748 
 386  1  3.9286  5.0511  3.9685 
 387  1  3.3674  4.4898  4.7622 
 388  1  3.9286  5.0511  5.5559 
 389  1  3.3674  4.4898  6.3496 
 390  1  3.9286  5.0511  7.1433 
 391  1  3.3674  4.4898  7.9370 
 392  1  3.9286  5.0511  8.7307 
 393  1  3.3674  4.4898  9.5244 
 394  1  3.9286  5.0511 10.3181 
 395  1  3.3674  4.4898 11.1118 
 396  1  3.9286  5.0511 11.9055 
 397  4  3.3674  4.4898 12.6992 
 398  3  3.9286  5.0511 13.4929 
 399  3  3.3674  4.4898 14.2866 
 400  3  3.9286  5.0511 15.0803 
 401  2  4.4898482  0.0000000  0.0000000
 402  1  5.0511  0.5612  0.7937 
 403  1  4.4898  0.0000  1.5874 
 404  1  5.0511  0.5612  2.3811 
 405  1  4.4898  0.0000  3.1748 
 406  1  5.0511  0.5612  3.9685 
 407  1  4.4898  0.0000  4.7622 
 408  1  5.0511  0.5612  5.5559 
 409  1  4.4898  0.0000  6.3496 
 410  1  5.0511  0.5612  7.1433 
 411  1  4.4898  0.0000  7.9370 
 412  1  5.0511  0.5612  8.7307 
 413  1  4.4898  0.0000  9.5244 
 414  1  5.0511  0.5612 10.3181 
 415  1  4.4898  0.0000 11.1118 
 416  1  5.0511  0.5612 11.9055 
 417  4  4.4898  0.0000 12.6992 
 418  3  5.0511  0.5612 13.4929 
 419  3  4.4898  0.0000 14.2866 
 420  3  5.0511  0.5612 15.0803 
 421  2  4.4898482  1.1224620  0.0000000
 422  1  5.0511  1.6837  0.7937 
 423  1  4.4898  1.1225  1.5874 
 424  1  5.0511  1.6837  2.3811 
 425  1  4.4898  1.1225  3.1748 
 426  1  5.0511  1.6837  3.9685 
 427  1  4.4898  1.1225  4.7622 
 428  1  5.0511  1.6837  5.5559 
 429  1  4.4898  1.1225  6.3496 
 430  1  5.0511  1.6837  7.1433 
 431  1  4.4898  1.1225  7.9370 
 432  1  5.0511  1.6837  8.7307 
 433  1  4.4898  1.1225  9.5244 
 434  1  5.0511  1.6837 10.3181 
 435  1  4.4898  1.1225 11.1118 
 436  1  5.0511  1.6837 11.9055 
 437  4  4.4898  1.1225 12.6992 
 438  3  5.0511  1.6837 13.4929 
 439  3  4.4898  1.1225 14.2866 
 440  3  5.0511  1.6837 15.0803 
 441  2  4.4898482  2.2449241  0.0000000
 442  1  5.0511  2.8062  0.7937 
 443  1  4.4898  2.2449  1.5874 
 444  1  5.0511  2.8062  2.3811 
 445  1  4.4898  2.2449  3.1748 
 446  1  5.0511  2.8062  3.9685 
 447  1  4.4898  2.2449  4.7622 
 448  1  5.0511  2.8062  5.5559 
 449  1  4.4898  2.2449  6.3496 
 450  1  5.0511  2.8062  7.1433 
 451  1  4.4898  2.2449  7.9370 
 452  1  5.0511  2.8062  8.7307 
 453  1  4.4898  2.2449  9.5244 
 454  1  5.0511  2.8062 10.3181 
 455  1  4.4898  2.2449 11.1118 
 456  1  5.0511  2.8062 11.9055 
 457  4  4.4898  2.2449 12.6992 
 458  3  5.0511  2.8062 13.4929 
 459  3  4.4898  2.2449 14.2866 
 460  3  5.0511  2.8062 15.0803 
 461  2  4.4898482  3.3673861  0.0000000
 462  1  5.0511  3.9286  0.7937 
 463  1  4.4898  3.3674  1.5874 
 464  1  5.0511  3.9286  2.3811 
 465  1  4.4898  3.3674  3.1748 
 466  1  5.0511  3.9286  3.9685 
 467  1  4.4898  3.3674  4.7622 
 468  1  5.0511  3.9286  5.5559 
 469  1  4.4898  3.3674  6.3496 
 470  1  5.0511  3.9286  7.1433 
 471  1  4.4898  3.3674  7.9370 
 472  1  5.0511  3.9286  8.7307 
 473  1  4.4898  3.3674  9.5244 
 474  1  5.0511  3.9286 10.3181 
 475  1  4.4898  3.3674 11.1118 
 476  1  5.0511  3.9286 11.9055 
 477  4  4.4898  3.3674 12.6992 
 478  3  5.0511  3.9286 13.4929 
 479  3  4.4898  3.3674 14.2866 
 480  3  5.0511  3.9286 15.0803 
 481  2  4.4898482  4.4898482  0.0000000
 482  1  5.0511  5.0511  0.7937 
 483  1  4.4898  4.4898  1.5874 
 484  1  5.0511  5.0511  2.3811 
 485  1  4.4898  4.4898  3.1748 
 486  1  5.0511  5.0511  3.9685 
 487  1  4.4898  4.4898  4.7622 
 488  1  5.0511  5.0511  5.5559 
 489  1  4.4898  4.4898  6.3496 
 490  1  5.0511  5.0511  7.1433 
 491  1  4.4898  4.4898  7.9370 
 492  1  5.0511  5.0511  8.7307 
 493  1  4.4898  4.4898  9.5244 
 494  1  5.0511  5.0511 10.3181 
 495  1  4.4898  4.4898 11.1118 
 496  1  5.0511  5.0511 11.9055 
 497  4  4.4898  4.4898 12.6992 
 498  3  5.0511  5.0511 13.4929 
 499  3  4.4898  4.4898 14.2866 
 500  3  5.0511  5.0511 15.0803         