
         250 atoms

4 atom types

0.0         5.6123102 xlo xhi
0.0         5.6123102 ylo yhi
      -1.5874011       8.7307060 zlo zhi

Masses

1 1.000000
2 1.000000
3 1.000000
4 1.000000

Atoms
 
   1  2  0.0000000  0.0000000  0.0000000    0    0    0  0.0000000  0.0000000  0.0000000
   2  1  0.5612  0.5612  0.7937 0 0 0 0.0 0.0 0.0
   3  1  0.0000  0.0000  1.5874 0 0 0 0.0 0.0 0.0
   4  1  0.5612  0.5612  2.3811 0 0 0 0.0 0.0 0.0
   5  1  0.0000  0.0000  3.1748 0 0 0 0.0 0.0 0.0
   6  1  0.5612  0.5612  3.9685 0 0 0 0.0 0.0 0.0
   7  1  0.0000  0.0000  4.7622 0 0 0 0.0 0.0 0.0
   8  4  0.5612  0.5612  5.5559 0 0 0 0.0 0.0 0.0
   9  3  0.0000  0.0000  6.3496 0 0 0 0.0 0.0 0.0
  10  3  0.5612  0.5612  7.1433 0 0 0 0.0 0.0 0.0
  11  2  0.0000000  1.1224620  0.0000000    0    1    0  0.0000000  1.1224620  0.0000000
  12  1  0.5612  1.6837  0.7937 0 0 0 0.0 0.0 0.0
  13  1  0.0000  1.1225  1.5874 0 0 0 0.0 0.0 0.0
  14  1  0.5612  1.6837  2.3811 0 0 0 0.0 0.0 0.0
  15  1  0.0000  1.1225  3.1748 0 0 0 0.0 0.0 0.0
  16  1  0.5612  1.6837  3.9685 0 0 0 0.0 0.0 0.0
  17  1  0.0000  1.1225  4.7622 0 0 0 0.0 0.0 0.0
  18  4  0.5612  1.6837  5.5559 0 0 0 0.0 0.0 0.0
  19  3  0.0000  1.1225  6.3496 0 0 0 0.0 0.0 0.0
  20  3  0.5612  1.6837  7.1433 0 0 0 0.0 0.0 0.0
  21  2  0.0000000  2.2449241  0.0000000    0    2    0  0.0000000  2.2449241  0.0000000
  22  1  0.5612  2.8062  0.7937 0 0 0 0.0 0.0 0.0
  23  1  0.0000  2.2449  1.5874 0 0 0 0.0 0.0 0.0
  24  1  0.5612  2.8062  2.3811 0 0 0 0.0 0.0 0.0
  25  1  0.0000  2.2449  3.1748 0 0 0 0.0 0.0 0.0
  26  1  0.5612  2.8062  3.9685 0 0 0 0.0 0.0 0.0
  27  1  0.0000  2.2449  4.7622 0 0 0 0.0 0.0 0.0
  28  4  0.5612  2.8062  5.5559 0 0 0 0.0 0.0 0.0
  29  3  0.0000  2.2449  6.3496 0 0 0 0.0 0.0 0.0
  30  3  0.5612  2.8062  7.1433 0 0 0 0.0 0.0 0.0
  31  2  0.0000000  3.3673861  0.0000000    0    3    0  0.0000000  3.3673861  0.0000000
  32  1  0.5612  3.9286  0.7937 0 0 0 0.0 0.0 0.0
  33  1  0.0000  3.3674  1.5874 0 0 0 0.0 0.0 0.0
  34  1  0.5612  3.9286  2.3811 0 0 0 0.0 0.0 0.0
  35  1  0.0000  3.3674  3.1748 0 0 0 0.0 0.0 0.0
  36  1  0.5612  3.9286  3.9685 0 0 0 0.0 0.0 0.0
  37  1  0.0000  3.3674  4.7622 0 0 0 0.0 0.0 0.0
  38  4  0.5612  3.9286  5.5559 0 0 0 0.0 0.0 0.0
  39  3  0.0000  3.3674  6.3496 0 0 0 0.0 0.0 0.0
  40  3  0.5612  3.9286  7.1433 0 0 0 0.0 0.0 0.0
  41  2  0.0000000  4.4898482  0.0000000    0    4    0  0.0000000  4.4898482  0.0000000
  42  1  0.5612  5.0511  0.7937 0 0 0 0.0 0.0 0.0
  43  1  0.0000  4.4898  1.5874 0 0 0 0.0 0.0 0.0
  44  1  0.5612  5.0511  2.3811 0 0 0 0.0 0.0 0.0
  45  1  0.0000  4.4898  3.1748 0 0 0 0.0 0.0 0.0
  46  1  0.5612  5.0511  3.9685 0 0 0 0.0 0.0 0.0
  47  1  0.0000  4.4898  4.7622 0 0 0 0.0 0.0 0.0
  48  4  0.5612  5.0511  5.5559 0 0 0 0.0 0.0 0.0
  49  3  0.0000  4.4898  6.3496 0 0 0 0.0 0.0 0.0
  50  3  0.5612  5.0511  7.1433 0 0 0 0.0 0.0 0.0
  51  2  1.1224620  0.0000000  0.0000000    1    0    0  1.1224620  0.0000000  0.0000000
  52  1  1.6837  0.5612  0.7937 0 0 0 0.0 0.0 0.0
  53  1  1.1225  0.0000  1.5874 0 0 0 0.0 0.0 0.0
  54  1  1.6837  0.5612  2.3811 0 0 0 0.0 0.0 0.0
  55  1  1.1225  0.0000  3.1748 0 0 0 0.0 0.0 0.0
  56  1  1.6837  0.5612  3.9685 0 0 0 0.0 0.0 0.0
  57  1  1.1225  0.0000  4.7622 0 0 0 0.0 0.0 0.0
  58  4  1.6837  0.5612  5.5559 0 0 0 0.0 0.0 0.0
  59  3  1.1225  0.0000  6.3496 0 0 0 0.0 0.0 0.0
  60  3  1.6837  0.5612  7.1433 0 0 0 0.0 0.0 0.0
  61  2  1.1224620  1.1224620  0.0000000    1    1    0  1.1224620  1.1224620  0.0000000
  62  1  1.6837  1.6837  0.7937 0 0 0 0.0 0.0 0.0
  63  1  1.1225  1.1225  1.5874 0 0 0 0.0 0.0 0.0
  64  1  1.6837  1.6837  2.3811 0 0 0 0.0 0.0 0.0
  65  1  1.1225  1.1225  3.1748 0 0 0 0.0 0.0 0.0
  66  1  1.6837  1.6837  3.9685 0 0 0 0.0 0.0 0.0
  67  1  1.1225  1.1225  4.7622 0 0 0 0.0 0.0 0.0
  68  4  1.6837  1.6837  5.5559 0 0 0 0.0 0.0 0.0
  69  3  1.1225  1.1225  6.3496 0 0 0 0.0 0.0 0.0
  70  3  1.6837  1.6837  7.1433 0 0 0 0.0 0.0 0.0
  71  2  1.1224620  2.2449241  0.0000000    1    2    0  1.1224620  2.2449241  0.0000000
  72  1  1.6837  2.8062  0.7937 0 0 0 0.0 0.0 0.0
  73  1  1.1225  2.2449  1.5874 0 0 0 0.0 0.0 0.0
  74  1  1.6837  2.8062  2.3811 0 0 0 0.0 0.0 0.0
  75  1  1.1225  2.2449  3.1748 0 0 0 0.0 0.0 0.0
  76  1  1.6837  2.8062  3.9685 0 0 0 0.0 0.0 0.0
  77  1  1.1225  2.2449  4.7622 0 0 0 0.0 0.0 0.0
  78  4  1.6837  2.8062  5.5559 0 0 0 0.0 0.0 0.0
  79  3  1.1225  2.2449  6.3496 0 0 0 0.0 0.0 0.0
  80  3  1.6837  2.8062  7.1433 0 0 0 0.0 0.0 0.0
  81  2  1.1224620  3.3673861  0.0000000    1    3    0  1.1224620  3.3673861  0.0000000
  82  1  1.6837  3.9286  0.7937 0 0 0 0.0 0.0 0.0
  83  1  1.1225  3.3674  1.5874 0 0 0 0.0 0.0 0.0
  84  1  1.6837  3.9286  2.3811 0 0 0 0.0 0.0 0.0
  85  1  1.1225  3.3674  3.1748 0 0 0 0.0 0.0 0.0
  86  1  1.6837  3.9286  3.9685 0 0 0 0.0 0.0 0.0
  87  1  1.1225  3.3674  4.7622 0 0 0 0.0 0.0 0.0
  88  4  1.6837  3.9286  5.5559 0 0 0 0.0 0.0 0.0
  89  3  1.1225  3.3674  6.3496 0 0 0 0.0 0.0 0.0
  90  3  1.6837  3.9286  7.1433 0 0 0 0.0 0.0 0.0
  91  2  1.1224620  4.4898482  0.0000000    1    4    0  1.1224620  4.4898482  0.0000000
  92  1  1.6837  5.0511  0.7937 0 0 0 0.0 0.0 0.0
  93  1  1.1225  4.4898  1.5874 0 0 0 0.0 0.0 0.0
  94  1  1.6837  5.0511  2.3811 0 0 0 0.0 0.0 0.0
  95  1  1.1225  4.4898  3.1748 0 0 0 0.0 0.0 0.0
  96  1  1.6837  5.0511  3.9685 0 0 0 0.0 0.0 0.0
  97  1  1.1225  4.4898  4.7622 0 0 0 0.0 0.0 0.0
  98  4  1.6837  5.0511  5.5559 0 0 0 0.0 0.0 0.0
  99  3  1.1225  4.4898  6.3496 0 0 0 0.0 0.0 0.0
 100  3  1.6837  5.0511  7.1433 0 0 0 0.0 0.0 0.0
 101  2  2.2449241  0.0000000  0.0000000    2    0    0  2.2449241  0.0000000  0.0000000
 102  1  2.8062  0.5612  0.7937 0 0 0 0.0 0.0 0.0
 103  1  2.2449  0.0000  1.5874 0 0 0 0.0 0.0 0.0
 104  1  2.8062  0.5612  2.3811 0 0 0 0.0 0.0 0.0
 105  1  2.2449  0.0000  3.1748 0 0 0 0.0 0.0 0.0
 106  1  2.8062  0.5612  3.9685 0 0 0 0.0 0.0 0.0
 107  1  2.2449  0.0000  4.7622 0 0 0 0.0 0.0 0.0
 108  4  2.8062  0.5612  5.5559 0 0 0 0.0 0.0 0.0
 109  3  2.2449  0.0000  6.3496 0 0 0 0.0 0.0 0.0
 110  3  2.8062  0.5612  7.1433 0 0 0 0.0 0.0 0.0
 111  2  2.2449241  1.1224620  0.0000000    2    1    0  2.2449241  1.1224620  0.0000000
 112  1  2.8062  1.6837  0.7937 0 0 0 0.0 0.0 0.0
 113  1  2.2449  1.1225  1.5874 0 0 0 0.0 0.0 0.0
 114  1  2.8062  1.6837  2.3811 0 0 0 0.0 0.0 0.0
 115  1  2.2449  1.1225  3.1748 0 0 0 0.0 0.0 0.0
 116  1  2.8062  1.6837  3.9685 0 0 0 0.0 0.0 0.0
 117  1  2.2449  1.1225  4.7622 0 0 0 0.0 0.0 0.0
 118  4  2.8062  1.6837  5.5559 0 0 0 0.0 0.0 0.0
 119  3  2.2449  1.1225  6.3496 0 0 0 0.0 0.0 0.0
 120  3  2.8062  1.6837  7.1433 0 0 0 0.0 0.0 0.0
 121  2  2.2449241  2.2449241  0.0000000    2    2    0  2.2449241  2.2449241  0.0000000
 122  1  2.8062  2.8062  0.7937 0 0 0 0.0 0.0 0.0
 123  1  2.2449  2.2449  1.5874 0 0 0 0.0 0.0 0.0
 124  1  2.8062  2.8062  2.3811 0 0 0 0.0 0.0 0.0
 125  1  2.2449  2.2449  3.1748 0 0 0 0.0 0.0 0.0
 126  1  2.8062  2.8062  3.9685 0 0 0 0.0 0.0 0.0
 127  1  2.2449  2.2449  4.7622 0 0 0 0.0 0.0 0.0
 128  4  2.8062  2.8062  5.5559 0 0 0 0.0 0.0 0.0
 129  3  2.2449  2.2449  6.3496 0 0 0 0.0 0.0 0.0
 130  3  2.8062  2.8062  7.1433 0 0 0 0.0 0.0 0.0
 131  2  2.2449241  3.3673861  0.0000000    2    3    0  2.2449241  3.3673861  0.0000000
 132  1  2.8062  3.9286  0.7937 0 0 0 0.0 0.0 0.0
 133  1  2.2449  3.3674  1.5874 0 0 0 0.0 0.0 0.0
 134  1  2.8062  3.9286  2.3811 0 0 0 0.0 0.0 0.0
 135  1  2.2449  3.3674  3.1748 0 0 0 0.0 0.0 0.0
 136  1  2.8062  3.9286  3.9685 0 0 0 0.0 0.0 0.0
 137  1  2.2449  3.3674  4.7622 0 0 0 0.0 0.0 0.0
 138  4  2.8062  3.9286  5.5559 0 0 0 0.0 0.0 0.0
 139  3  2.2449  3.3674  6.3496 0 0 0 0.0 0.0 0.0
 140  3  2.8062  3.9286  7.1433 0 0 0 0.0 0.0 0.0
 141  2  2.2449241  4.4898482  0.0000000    2    4    0  2.2449241  4.4898482  0.0000000
 142  1  2.8062  5.0511  0.7937 0 0 0 0.0 0.0 0.0
 143  1  2.2449  4.4898  1.5874 0 0 0 0.0 0.0 0.0
 144  1  2.8062  5.0511  2.3811 0 0 0 0.0 0.0 0.0
 145  1  2.2449  4.4898  3.1748 0 0 0 0.0 0.0 0.0
 146  1  2.8062  5.0511  3.9685 0 0 0 0.0 0.0 0.0
 147  1  2.2449  4.4898  4.7622 0 0 0 0.0 0.0 0.0
 148  4  2.8062  5.0511  5.5559 0 0 0 0.0 0.0 0.0
 149  3  2.2449  4.4898  6.3496 0 0 0 0.0 0.0 0.0
 150  3  2.8062  5.0511  7.1433 0 0 0 0.0 0.0 0.0
 151  2  3.3673861  0.0000000  0.0000000    3    0    0  3.3673861  0.0000000  0.0000000
 152  1  3.9286  0.5612  0.7937 0 0 0 0.0 0.0 0.0
 153  1  3.3674  0.0000  1.5874 0 0 0 0.0 0.0 0.0
 154  1  3.9286  0.5612  2.3811 0 0 0 0.0 0.0 0.0
 155  1  3.3674  0.0000  3.1748 0 0 0 0.0 0.0 0.0
 156  1  3.9286  0.5612  3.9685 0 0 0 0.0 0.0 0.0
 157  1  3.3674  0.0000  4.7622 0 0 0 0.0 0.0 0.0
 158  4  3.9286  0.5612  5.5559 0 0 0 0.0 0.0 0.0
 159  3  3.3674  0.0000  6.3496 0 0 0 0.0 0.0 0.0
 160  3  3.9286  0.5612  7.1433 0 0 0 0.0 0.0 0.0
 161  2  3.3673861  1.1224620  0.0000000    3    1    0  3.3673861  1.1224620  0.0000000
 162  1  3.9286  1.6837  0.7937 0 0 0 0.0 0.0 0.0
 163  1  3.3674  1.1225  1.5874 0 0 0 0.0 0.0 0.0
 164  1  3.9286  1.6837  2.3811 0 0 0 0.0 0.0 0.0
 165  1  3.3674  1.1225  3.1748 0 0 0 0.0 0.0 0.0
 166  1  3.9286  1.6837  3.9685 0 0 0 0.0 0.0 0.0
 167  1  3.3674  1.1225  4.7622 0 0 0 0.0 0.0 0.0
 168  4  3.9286  1.6837  5.5559 0 0 0 0.0 0.0 0.0
 169  3  3.3674  1.1225  6.3496 0 0 0 0.0 0.0 0.0
 170  3  3.9286  1.6837  7.1433 0 0 0 0.0 0.0 0.0
 171  2  3.3673861  2.2449241  0.0000000    3    2    0  3.3673861  2.2449241  0.0000000
 172  1  3.9286  2.8062  0.7937 0 0 0 0.0 0.0 0.0
 173  1  3.3674  2.2449  1.5874 0 0 0 0.0 0.0 0.0
 174  1  3.9286  2.8062  2.3811 0 0 0 0.0 0.0 0.0
 175  1  3.3674  2.2449  3.1748 0 0 0 0.0 0.0 0.0
 176  1  3.9286  2.8062  3.9685 0 0 0 0.0 0.0 0.0
 177  1  3.3674  2.2449  4.7622 0 0 0 0.0 0.0 0.0
 178  4  3.9286  2.8062  5.5559 0 0 0 0.0 0.0 0.0
 179  3  3.3674  2.2449  6.3496 0 0 0 0.0 0.0 0.0
 180  3  3.9286  2.8062  7.1433 0 0 0 0.0 0.0 0.0
 181  2  3.3673861  3.3673861  0.0000000    3    3    0  3.3673861  3.3673861  0.0000000
 182  1  3.9286  3.9286  0.7937 0 0 0 0.0 0.0 0.0
 183  1  3.3674  3.3674  1.5874 0 0 0 0.0 0.0 0.0
 184  1  3.9286  3.9286  2.3811 0 0 0 0.0 0.0 0.0
 185  1  3.3674  3.3674  3.1748 0 0 0 0.0 0.0 0.0
 186  1  3.9286  3.9286  3.9685 0 0 0 0.0 0.0 0.0
 187  1  3.3674  3.3674  4.7622 0 0 0 0.0 0.0 0.0
 188  4  3.9286  3.9286  5.5559 0 0 0 0.0 0.0 0.0
 189  3  3.3674  3.3674  6.3496 0 0 0 0.0 0.0 0.0
 190  3  3.9286  3.9286  7.1433 0 0 0 0.0 0.0 0.0
 191  2  3.3673861  4.4898482  0.0000000    3    4    0  3.3673861  4.4898482  0.0000000
 192  1  3.9286  5.0511  0.7937 0 0 0 0.0 0.0 0.0
 193  1  3.3674  4.4898  1.5874 0 0 0 0.0 0.0 0.0
 194  1  3.9286  5.0511  2.3811 0 0 0 0.0 0.0 0.0
 195  1  3.3674  4.4898  3.1748 0 0 0 0.0 0.0 0.0
 196  1  3.9286  5.0511  3.9685 0 0 0 0.0 0.0 0.0
 197  1  3.3674  4.4898  4.7622 0 0 0 0.0 0.0 0.0
 198  4  3.9286  5.0511  5.5559 0 0 0 0.0 0.0 0.0
 199  3  3.3674  4.4898  6.3496 0 0 0 0.0 0.0 0.0
 200  3  3.9286  5.0511  7.1433 0 0 0 0.0 0.0 0.0
 201  2  4.4898482  0.0000000  0.0000000    4    0    0  4.4898482  0.0000000  0.0000000
 202  1  5.0511  0.5612  0.7937 0 0 0 0.0 0.0 0.0
 203  1  4.4898  0.0000  1.5874 0 0 0 0.0 0.0 0.0
 204  1  5.0511  0.5612  2.3811 0 0 0 0.0 0.0 0.0
 205  1  4.4898  0.0000  3.1748 0 0 0 0.0 0.0 0.0
 206  1  5.0511  0.5612  3.9685 0 0 0 0.0 0.0 0.0
 207  1  4.4898  0.0000  4.7622 0 0 0 0.0 0.0 0.0
 208  4  5.0511  0.5612  5.5559 0 0 0 0.0 0.0 0.0
 209  3  4.4898  0.0000  6.3496 0 0 0 0.0 0.0 0.0
 210  3  5.0511  0.5612  7.1433 0 0 0 0.0 0.0 0.0
 211  2  4.4898482  1.1224620  0.0000000    4    1    0  4.4898482  1.1224620  0.0000000
 212  1  5.0511  1.6837  0.7937 0 0 0 0.0 0.0 0.0
 213  1  4.4898  1.1225  1.5874 0 0 0 0.0 0.0 0.0
 214  1  5.0511  1.6837  2.3811 0 0 0 0.0 0.0 0.0
 215  1  4.4898  1.1225  3.1748 0 0 0 0.0 0.0 0.0
 216  1  5.0511  1.6837  3.9685 0 0 0 0.0 0.0 0.0
 217  1  4.4898  1.1225  4.7622 0 0 0 0.0 0.0 0.0
 218  4  5.0511  1.6837  5.5559 0 0 0 0.0 0.0 0.0
 219  3  4.4898  1.1225  6.3496 0 0 0 0.0 0.0 0.0
 220  3  5.0511  1.6837  7.1433 0 0 0 0.0 0.0 0.0
 221  2  4.4898482  2.2449241  0.0000000    4    2    0  4.4898482  2.2449241  0.0000000
 222  1  5.0511  2.8062  0.7937 0 0 0 0.0 0.0 0.0
 223  1  4.4898  2.2449  1.5874 0 0 0 0.0 0.0 0.0
 224  1  5.0511  2.8062  2.3811 0 0 0 0.0 0.0 0.0
 225  1  4.4898  2.2449  3.1748 0 0 0 0.0 0.0 0.0
 226  1  5.0511  2.8062  3.9685 0 0 0 0.0 0.0 0.0
 227  1  4.4898  2.2449  4.7622 0 0 0 0.0 0.0 0.0
 228  4  5.0511  2.8062  5.5559 0 0 0 0.0 0.0 0.0
 229  3  4.4898  2.2449  6.3496 0 0 0 0.0 0.0 0.0
 230  3  5.0511  2.8062  7.1433 0 0 0 0.0 0.0 0.0
 231  2  4.4898482  3.3673861  0.0000000    4    3    0  4.4898482  3.3673861  0.0000000
 232  1  5.0511  3.9286  0.7937 0 0 0 0.0 0.0 0.0
 233  1  4.4898  3.3674  1.5874 0 0 0 0.0 0.0 0.0
 234  1  5.0511  3.9286  2.3811 0 0 0 0.0 0.0 0.0
 235  1  4.4898  3.3674  3.1748 0 0 0 0.0 0.0 0.0
 236  1  5.0511  3.9286  3.9685 0 0 0 0.0 0.0 0.0
 237  1  4.4898  3.3674  4.7622 0 0 0 0.0 0.0 0.0
 238  4  5.0511  3.9286  5.5559 0 0 0 0.0 0.0 0.0
 239  3  4.4898  3.3674  6.3496 0 0 0 0.0 0.0 0.0
 240  3  5.0511  3.9286  7.1433 0 0 0 0.0 0.0 0.0
 241  2  4.4898482  4.4898482  0.0000000    4    4    0  4.4898482  4.4898482  0.0000000
 242  1  5.0511  5.0511  0.7937 0 0 0 0.0 0.0 0.0
 243  1  4.4898  4.4898  1.5874 0 0 0 0.0 0.0 0.0
 244  1  5.0511  5.0511  2.3811 0 0 0 0.0 0.0 0.0
 245  1  4.4898  4.4898  3.1748 0 0 0 0.0 0.0 0.0
 246  1  5.0511  5.0511  3.9685 0 0 0 0.0 0.0 0.0
 247  1  4.4898  4.4898  4.7622 0 0 0 0.0 0.0 0.0
 248  4  5.0511  5.0511  5.5559 0 0 0 0.0 0.0 0.0
 249  3  4.4898  4.4898  6.3496 0 0 0 0.0 0.0 0.0
 250  3  5.0511  5.0511  7.1433 0 0 0 0.0 0.0 0.0
