
        1024 atoms

4 atom types

0.0         8.8055200 xlo xhi
0.0         8.8055200 ylo yhi
      -4.9811544       16.188751 zlo zhi

Masses

1 1.000000
2 1.000000
3 1.000000
4 1.000000

Atoms
 
      1 2    0.000000    0.000000    0.000000
      2 2    0.550345    0.550345    0.778305
      3 4    0.000000    0.000000    1.556611
      4 4    0.550345    0.550345    2.334916
      5 3    0.000000    0.000000    3.113221
      6 3    0.550345    0.550345    3.891527
      7 3    0.000000    0.000000    4.669832
      8 3    0.550345    0.550345    5.448138
      9 3    0.000000    0.000000    6.226443
     10 3    0.550345    0.550345    7.004748
     11 3    0.000000    0.000000    7.783054
     12 3    0.550345    0.550345    8.561359
     13 3    0.000000    0.000000    9.339664
     14 3    0.550345    0.550345   10.117970
     15 3    0.000000    0.000000   10.896275
     16 3    0.550345    0.550345   11.674580
     17 2    0.000000    1.100690    0.000000
     18 2    0.550345    1.651035    0.778305
     19 4    0.000000    1.100690    1.556611
     20 4    0.550345    1.651035    2.334916
     21 3    0.000000    1.100690    3.113221
     22 3    0.550345    1.651035    3.891527
     23 3    0.000000    1.100690    4.669832
     24 3    0.550345    1.651035    5.448138
     25 3    0.000000    1.100690    6.226443
     26 3    0.550345    1.651035    7.004748
     27 3    0.000000    1.100690    7.783054
     28 3    0.550345    1.651035    8.561359
     29 3    0.000000    1.100690    9.339664
     30 3    0.550345    1.651035   10.117970
     31 3    0.000000    1.100690   10.896275
     32 3    0.550345    1.651035   11.674580
     33 2    0.000000    2.201380    0.000000
     34 2    0.550345    2.751725    0.778305
     35 4    0.000000    2.201380    1.556611
     36 4    0.550345    2.751725    2.334916
     37 3    0.000000    2.201380    3.113221
     38 3    0.550345    2.751725    3.891527
     39 3    0.000000    2.201380    4.669832
     40 3    0.550345    2.751725    5.448138
     41 3    0.000000    2.201380    6.226443
     42 3    0.550345    2.751725    7.004748
     43 3    0.000000    2.201380    7.783054
     44 3    0.550345    2.751725    8.561359
     45 3    0.000000    2.201380    9.339664
     46 3    0.550345    2.751725   10.117970
     47 3    0.000000    2.201380   10.896275
     48 3    0.550345    2.751725   11.674580
     49 2    0.000000    3.302070    0.000000
     50 2    0.550345    3.852415    0.778305
     51 4    0.000000    3.302070    1.556611
     52 4    0.550345    3.852415    2.334916
     53 3    0.000000    3.302070    3.113221
     54 3    0.550345    3.852415    3.891527
     55 3    0.000000    3.302070    4.669832
     56 3    0.550345    3.852415    5.448138
     57 3    0.000000    3.302070    6.226443
     58 3    0.550345    3.852415    7.004748
     59 3    0.000000    3.302070    7.783054
     60 3    0.550345    3.852415    8.561359
     61 3    0.000000    3.302070    9.339664
     62 3    0.550345    3.852415   10.117970
     63 3    0.000000    3.302070   10.896275
     64 3    0.550345    3.852415   11.674580
     65 2    0.000000    4.402760    0.000000
     66 2    0.550345    4.953105    0.778305
     67 4    0.000000    4.402760    1.556611
     68 4    0.550345    4.953105    2.334916
     69 3    0.000000    4.402760    3.113221
     70 3    0.550345    4.953105    3.891527
     71 3    0.000000    4.402760    4.669832
     72 3    0.550345    4.953105    5.448138
     73 3    0.000000    4.402760    6.226443
     74 3    0.550345    4.953105    7.004748
     75 3    0.000000    4.402760    7.783054
     76 3    0.550345    4.953105    8.561359
     77 3    0.000000    4.402760    9.339664
     78 3    0.550345    4.953105   10.117970
     79 3    0.000000    4.402760   10.896275
     80 3    0.550345    4.953105   11.674580
     81 2    0.000000    5.503450    0.000000
     82 2    0.550345    6.053795    0.778305
     83 4    0.000000    5.503450    1.556611
     84 4    0.550345    6.053795    2.334916
     85 3    0.000000    5.503450    3.113221
     86 3    0.550345    6.053795    3.891527
     87 3    0.000000    5.503450    4.669832
     88 3    0.550345    6.053795    5.448138
     89 3    0.000000    5.503450    6.226443
     90 3    0.550345    6.053795    7.004748
     91 3    0.000000    5.503450    7.783054
     92 3    0.550345    6.053795    8.561359
     93 3    0.000000    5.503450    9.339664
     94 3    0.550345    6.053795   10.117970
     95 3    0.000000    5.503450   10.896275
     96 3    0.550345    6.053795   11.674580
     97 2    0.000000    6.604140    0.000000
     98 2    0.550345    7.154485    0.778305
     99 4    0.000000    6.604140    1.556611
    100 4    0.550345    7.154485    2.334916
    101 3    0.000000    6.604140    3.113221
    102 3    0.550345    7.154485    3.891527
    103 3    0.000000    6.604140    4.669832
    104 3    0.550345    7.154485    5.448138
    105 3    0.000000    6.604140    6.226443
    106 3    0.550345    7.154485    7.004748
    107 3    0.000000    6.604140    7.783054
    108 3    0.550345    7.154485    8.561359
    109 3    0.000000    6.604140    9.339664
    110 3    0.550345    7.154485   10.117970
    111 3    0.000000    6.604140   10.896275
    112 3    0.550345    7.154485   11.674580
    113 2    0.000000    7.704830    0.000000
    114 2    0.550345    8.255175    0.778305
    115 4    0.000000    7.704830    1.556611
    116 4    0.550345    8.255175    2.334916
    117 3    0.000000    7.704830    3.113221
    118 3    0.550345    8.255175    3.891527
    119 3    0.000000    7.704830    4.669832
    120 3    0.550345    8.255175    5.448138
    121 3    0.000000    7.704830    6.226443
    122 3    0.550345    8.255175    7.004748
    123 3    0.000000    7.704830    7.783054
    124 3    0.550345    8.255175    8.561359
    125 3    0.000000    7.704830    9.339664
    126 3    0.550345    8.255175   10.117970
    127 3    0.000000    7.704830   10.896275
    128 3    0.550345    8.255175   11.674580
    129 2    1.100690    0.000000    0.000000
    130 2    1.651035    0.550345    0.778305
    131 4    1.100690    0.000000    1.556611
    132 4    1.651035    0.550345    2.334916
    133 3    1.100690    0.000000    3.113221
    134 3    1.651035    0.550345    3.891527
    135 3    1.100690    0.000000    4.669832
    136 3    1.651035    0.550345    5.448138
    137 3    1.100690    0.000000    6.226443
    138 3    1.651035    0.550345    7.004748
    139 3    1.100690    0.000000    7.783054
    140 3    1.651035    0.550345    8.561359
    141 3    1.100690    0.000000    9.339664
    142 3    1.651035    0.550345   10.117970
    143 3    1.100690    0.000000   10.896275
    144 3    1.651035    0.550345   11.674580
    145 2    1.100690    1.100690    0.000000
    146 2    1.651035    1.651035    0.778305
    147 4    1.100690    1.100690    1.556611
    148 4    1.651035    1.651035    2.334916
    149 3    1.100690    1.100690    3.113221
    150 3    1.651035    1.651035    3.891527
    151 3    1.100690    1.100690    4.669832
    152 3    1.651035    1.651035    5.448138
    153 3    1.100690    1.100690    6.226443
    154 3    1.651035    1.651035    7.004748
    155 3    1.100690    1.100690    7.783054
    156 3    1.651035    1.651035    8.561359
    157 3    1.100690    1.100690    9.339664
    158 3    1.651035    1.651035   10.117970
    159 3    1.100690    1.100690   10.896275
    160 3    1.651035    1.651035   11.674580
    161 2    1.100690    2.201380    0.000000
    162 2    1.651035    2.751725    0.778305
    163 4    1.100690    2.201380    1.556611
    164 4    1.651035    2.751725    2.334916
    165 3    1.100690    2.201380    3.113221
    166 3    1.651035    2.751725    3.891527
    167 3    1.100690    2.201380    4.669832
    168 3    1.651035    2.751725    5.448138
    169 3    1.100690    2.201380    6.226443
    170 3    1.651035    2.751725    7.004748
    171 3    1.100690    2.201380    7.783054
    172 3    1.651035    2.751725    8.561359
    173 3    1.100690    2.201380    9.339664
    174 3    1.651035    2.751725   10.117970
    175 3    1.100690    2.201380   10.896275
    176 3    1.651035    2.751725   11.674580
    177 2    1.100690    3.302070    0.000000
    178 2    1.651035    3.852415    0.778305
    179 4    1.100690    3.302070    1.556611
    180 4    1.651035    3.852415    2.334916
    181 3    1.100690    3.302070    3.113221
    182 3    1.651035    3.852415    3.891527
    183 3    1.100690    3.302070    4.669832
    184 3    1.651035    3.852415    5.448138
    185 3    1.100690    3.302070    6.226443
    186 3    1.651035    3.852415    7.004748
    187 3    1.100690    3.302070    7.783054
    188 3    1.651035    3.852415    8.561359
    189 3    1.100690    3.302070    9.339664
    190 3    1.651035    3.852415   10.117970
    191 3    1.100690    3.302070   10.896275
    192 3    1.651035    3.852415   11.674580
    193 2    1.100690    4.402760    0.000000
    194 2    1.651035    4.953105    0.778305
    195 4    1.100690    4.402760    1.556611
    196 4    1.651035    4.953105    2.334916
    197 3    1.100690    4.402760    3.113221
    198 3    1.651035    4.953105    3.891527
    199 3    1.100690    4.402760    4.669832
    200 3    1.651035    4.953105    5.448138
    201 3    1.100690    4.402760    6.226443
    202 3    1.651035    4.953105    7.004748
    203 3    1.100690    4.402760    7.783054
    204 3    1.651035    4.953105    8.561359
    205 3    1.100690    4.402760    9.339664
    206 3    1.651035    4.953105   10.117970
    207 3    1.100690    4.402760   10.896275
    208 3    1.651035    4.953105   11.674580
    209 2    1.100690    5.503450    0.000000
    210 2    1.651035    6.053795    0.778305
    211 4    1.100690    5.503450    1.556611
    212 4    1.651035    6.053795    2.334916
    213 3    1.100690    5.503450    3.113221
    214 3    1.651035    6.053795    3.891527
    215 3    1.100690    5.503450    4.669832
    216 3    1.651035    6.053795    5.448138
    217 3    1.100690    5.503450    6.226443
    218 3    1.651035    6.053795    7.004748
    219 3    1.100690    5.503450    7.783054
    220 3    1.651035    6.053795    8.561359
    221 3    1.100690    5.503450    9.339664
    222 3    1.651035    6.053795   10.117970
    223 3    1.100690    5.503450   10.896275
    224 3    1.651035    6.053795   11.674580
    225 2    1.100690    6.604140    0.000000
    226 2    1.651035    7.154485    0.778305
    227 4    1.100690    6.604140    1.556611
    228 4    1.651035    7.154485    2.334916
    229 3    1.100690    6.604140    3.113221
    230 3    1.651035    7.154485    3.891527
    231 3    1.100690    6.604140    4.669832
    232 3    1.651035    7.154485    5.448138
    233 3    1.100690    6.604140    6.226443
    234 3    1.651035    7.154485    7.004748
    235 3    1.100690    6.604140    7.783054
    236 3    1.651035    7.154485    8.561359
    237 3    1.100690    6.604140    9.339664
    238 3    1.651035    7.154485   10.117970
    239 3    1.100690    6.604140   10.896275
    240 3    1.651035    7.154485   11.674580
    241 2    1.100690    7.704830    0.000000
    242 2    1.651035    8.255175    0.778305
    243 4    1.100690    7.704830    1.556611
    244 4    1.651035    8.255175    2.334916
    245 3    1.100690    7.704830    3.113221
    246 3    1.651035    8.255175    3.891527
    247 3    1.100690    7.704830    4.669832
    248 3    1.651035    8.255175    5.448138
    249 3    1.100690    7.704830    6.226443
    250 3    1.651035    8.255175    7.004748
    251 3    1.100690    7.704830    7.783054
    252 3    1.651035    8.255175    8.561359
    253 3    1.100690    7.704830    9.339664
    254 3    1.651035    8.255175   10.117970
    255 3    1.100690    7.704830   10.896275
    256 3    1.651035    8.255175   11.674580
    257 2    2.201380    0.000000    0.000000
    258 2    2.751725    0.550345    0.778305
    259 4    2.201380    0.000000    1.556611
    260 4    2.751725    0.550345    2.334916
    261 3    2.201380    0.000000    3.113221
    262 3    2.751725    0.550345    3.891527
    263 3    2.201380    0.000000    4.669832
    264 3    2.751725    0.550345    5.448138
    265 3    2.201380    0.000000    6.226443
    266 3    2.751725    0.550345    7.004748
    267 3    2.201380    0.000000    7.783054
    268 3    2.751725    0.550345    8.561359
    269 3    2.201380    0.000000    9.339664
    270 3    2.751725    0.550345   10.117970
    271 3    2.201380    0.000000   10.896275
    272 3    2.751725    0.550345   11.674580
    273 2    2.201380    1.100690    0.000000
    274 2    2.751725    1.651035    0.778305
    275 4    2.201380    1.100690    1.556611
    276 4    2.751725    1.651035    2.334916
    277 3    2.201380    1.100690    3.113221
    278 3    2.751725    1.651035    3.891527
    279 3    2.201380    1.100690    4.669832
    280 3    2.751725    1.651035    5.448138
    281 3    2.201380    1.100690    6.226443
    282 3    2.751725    1.651035    7.004748
    283 3    2.201380    1.100690    7.783054
    284 3    2.751725    1.651035    8.561359
    285 3    2.201380    1.100690    9.339664
    286 3    2.751725    1.651035   10.117970
    287 3    2.201380    1.100690   10.896275
    288 3    2.751725    1.651035   11.674580
    289 2    2.201380    2.201380    0.000000
    290 2    2.751725    2.751725    0.778305
    291 4    2.201380    2.201380    1.556611
    292 4    2.751725    2.751725    2.334916
    293 3    2.201380    2.201380    3.113221
    294 3    2.751725    2.751725    3.891527
    295 3    2.201380    2.201380    4.669832
    296 3    2.751725    2.751725    5.448138
    297 3    2.201380    2.201380    6.226443
    298 3    2.751725    2.751725    7.004748
    299 3    2.201380    2.201380    7.783054
    300 3    2.751725    2.751725    8.561359
    301 3    2.201380    2.201380    9.339664
    302 3    2.751725    2.751725   10.117970
    303 3    2.201380    2.201380   10.896275
    304 3    2.751725    2.751725   11.674580
    305 2    2.201380    3.302070    0.000000
    306 2    2.751725    3.852415    0.778305
    307 4    2.201380    3.302070    1.556611
    308 4    2.751725    3.852415    2.334916
    309 3    2.201380    3.302070    3.113221
    310 3    2.751725    3.852415    3.891527
    311 3    2.201380    3.302070    4.669832
    312 3    2.751725    3.852415    5.448138
    313 3    2.201380    3.302070    6.226443
    314 3    2.751725    3.852415    7.004748
    315 3    2.201380    3.302070    7.783054
    316 3    2.751725    3.852415    8.561359
    317 3    2.201380    3.302070    9.339664
    318 3    2.751725    3.852415   10.117970
    319 3    2.201380    3.302070   10.896275
    320 3    2.751725    3.852415   11.674580
    321 2    2.201380    4.402760    0.000000
    322 2    2.751725    4.953105    0.778305
    323 4    2.201380    4.402760    1.556611
    324 4    2.751725    4.953105    2.334916
    325 3    2.201380    4.402760    3.113221
    326 3    2.751725    4.953105    3.891527
    327 3    2.201380    4.402760    4.669832
    328 3    2.751725    4.953105    5.448138
    329 3    2.201380    4.402760    6.226443
    330 3    2.751725    4.953105    7.004748
    331 3    2.201380    4.402760    7.783054
    332 3    2.751725    4.953105    8.561359
    333 3    2.201380    4.402760    9.339664
    334 3    2.751725    4.953105   10.117970
    335 3    2.201380    4.402760   10.896275
    336 3    2.751725    4.953105   11.674580
    337 2    2.201380    5.503450    0.000000
    338 2    2.751725    6.053795    0.778305
    339 4    2.201380    5.503450    1.556611
    340 4    2.751725    6.053795    2.334916
    341 3    2.201380    5.503450    3.113221
    342 3    2.751725    6.053795    3.891527
    343 3    2.201380    5.503450    4.669832
    344 3    2.751725    6.053795    5.448138
    345 3    2.201380    5.503450    6.226443
    346 3    2.751725    6.053795    7.004748
    347 3    2.201380    5.503450    7.783054
    348 3    2.751725    6.053795    8.561359
    349 3    2.201380    5.503450    9.339664
    350 3    2.751725    6.053795   10.117970
    351 3    2.201380    5.503450   10.896275
    352 3    2.751725    6.053795   11.674580
    353 2    2.201380    6.604140    0.000000
    354 2    2.751725    7.154485    0.778305
    355 4    2.201380    6.604140    1.556611
    356 4    2.751725    7.154485    2.334916
    357 3    2.201380    6.604140    3.113221
    358 3    2.751725    7.154485    3.891527
    359 3    2.201380    6.604140    4.669832
    360 3    2.751725    7.154485    5.448138
    361 3    2.201380    6.604140    6.226443
    362 3    2.751725    7.154485    7.004748
    363 3    2.201380    6.604140    7.783054
    364 3    2.751725    7.154485    8.561359
    365 3    2.201380    6.604140    9.339664
    366 3    2.751725    7.154485   10.117970
    367 3    2.201380    6.604140   10.896275
    368 3    2.751725    7.154485   11.674580
    369 2    2.201380    7.704830    0.000000
    370 2    2.751725    8.255175    0.778305
    371 4    2.201380    7.704830    1.556611
    372 4    2.751725    8.255175    2.334916
    373 3    2.201380    7.704830    3.113221
    374 3    2.751725    8.255175    3.891527
    375 3    2.201380    7.704830    4.669832
    376 3    2.751725    8.255175    5.448138
    377 3    2.201380    7.704830    6.226443
    378 3    2.751725    8.255175    7.004748
    379 3    2.201380    7.704830    7.783054
    380 3    2.751725    8.255175    8.561359
    381 3    2.201380    7.704830    9.339664
    382 3    2.751725    8.255175   10.117970
    383 3    2.201380    7.704830   10.896275
    384 3    2.751725    8.255175   11.674580
    385 2    3.302070    0.000000    0.000000
    386 2    3.852415    0.550345    0.778305
    387 4    3.302070    0.000000    1.556611
    388 4    3.852415    0.550345    2.334916
    389 3    3.302070    0.000000    3.113221
    390 3    3.852415    0.550345    3.891527
    391 3    3.302070    0.000000    4.669832
    392 3    3.852415    0.550345    5.448138
    393 3    3.302070    0.000000    6.226443
    394 3    3.852415    0.550345    7.004748
    395 3    3.302070    0.000000    7.783054
    396 3    3.852415    0.550345    8.561359
    397 3    3.302070    0.000000    9.339664
    398 3    3.852415    0.550345   10.117970
    399 3    3.302070    0.000000   10.896275
    400 3    3.852415    0.550345   11.674580
    401 2    3.302070    1.100690    0.000000
    402 2    3.852415    1.651035    0.778305
    403 4    3.302070    1.100690    1.556611
    404 4    3.852415    1.651035    2.334916
    405 3    3.302070    1.100690    3.113221
    406 3    3.852415    1.651035    3.891527
    407 3    3.302070    1.100690    4.669832
    408 3    3.852415    1.651035    5.448138
    409 3    3.302070    1.100690    6.226443
    410 3    3.852415    1.651035    7.004748
    411 3    3.302070    1.100690    7.783054
    412 3    3.852415    1.651035    8.561359
    413 3    3.302070    1.100690    9.339664
    414 3    3.852415    1.651035   10.117970
    415 3    3.302070    1.100690   10.896275
    416 3    3.852415    1.651035   11.674580
    417 2    3.302070    2.201380    0.000000
    418 2    3.852415    2.751725    0.778305
    419 4    3.302070    2.201380    1.556611
    420 4    3.852415    2.751725    2.334916
    421 3    3.302070    2.201380    3.113221
    422 3    3.852415    2.751725    3.891527
    423 3    3.302070    2.201380    4.669832
    424 3    3.852415    2.751725    5.448138
    425 3    3.302070    2.201380    6.226443
    426 3    3.852415    2.751725    7.004748
    427 3    3.302070    2.201380    7.783054
    428 3    3.852415    2.751725    8.561359
    429 3    3.302070    2.201380    9.339664
    430 3    3.852415    2.751725   10.117970
    431 3    3.302070    2.201380   10.896275
    432 3    3.852415    2.751725   11.674580
    433 2    3.302070    3.302070    0.000000
    434 2    3.852415    3.852415    0.778305
    435 4    3.302070    3.302070    1.556611
    436 4    3.852415    3.852415    2.334916
    437 3    3.302070    3.302070    3.113221
    438 3    3.852415    3.852415    3.891527
    439 3    3.302070    3.302070    4.669832
    440 3    3.852415    3.852415    5.448138
    441 3    3.302070    3.302070    6.226443
    442 3    3.852415    3.852415    7.004748
    443 3    3.302070    3.302070    7.783054
    444 3    3.852415    3.852415    8.561359
    445 3    3.302070    3.302070    9.339664
    446 3    3.852415    3.852415   10.117970
    447 3    3.302070    3.302070   10.896275
    448 3    3.852415    3.852415   11.674580
    449 2    3.302070    4.402760    0.000000
    450 2    3.852415    4.953105    0.778305
    451 4    3.302070    4.402760    1.556611
    452 4    3.852415    4.953105    2.334916
    453 3    3.302070    4.402760    3.113221
    454 3    3.852415    4.953105    3.891527
    455 3    3.302070    4.402760    4.669832
    456 3    3.852415    4.953105    5.448138
    457 3    3.302070    4.402760    6.226443
    458 3    3.852415    4.953105    7.004748
    459 3    3.302070    4.402760    7.783054
    460 3    3.852415    4.953105    8.561359
    461 3    3.302070    4.402760    9.339664
    462 3    3.852415    4.953105   10.117970
    463 3    3.302070    4.402760   10.896275
    464 3    3.852415    4.953105   11.674580
    465 2    3.302070    5.503450    0.000000
    466 2    3.852415    6.053795    0.778305
    467 4    3.302070    5.503450    1.556611
    468 4    3.852415    6.053795    2.334916
    469 3    3.302070    5.503450    3.113221
    470 3    3.852415    6.053795    3.891527
    471 3    3.302070    5.503450    4.669832
    472 3    3.852415    6.053795    5.448138
    473 3    3.302070    5.503450    6.226443
    474 3    3.852415    6.053795    7.004748
    475 3    3.302070    5.503450    7.783054
    476 3    3.852415    6.053795    8.561359
    477 3    3.302070    5.503450    9.339664
    478 3    3.852415    6.053795   10.117970
    479 3    3.302070    5.503450   10.896275
    480 3    3.852415    6.053795   11.674580
    481 2    3.302070    6.604140    0.000000
    482 2    3.852415    7.154485    0.778305
    483 4    3.302070    6.604140    1.556611
    484 4    3.852415    7.154485    2.334916
    485 3    3.302070    6.604140    3.113221
    486 3    3.852415    7.154485    3.891527
    487 3    3.302070    6.604140    4.669832
    488 3    3.852415    7.154485    5.448138
    489 3    3.302070    6.604140    6.226443
    490 3    3.852415    7.154485    7.004748
    491 3    3.302070    6.604140    7.783054
    492 3    3.852415    7.154485    8.561359
    493 3    3.302070    6.604140    9.339664
    494 3    3.852415    7.154485   10.117970
    495 3    3.302070    6.604140   10.896275
    496 3    3.852415    7.154485   11.674580
    497 2    3.302070    7.704830    0.000000
    498 2    3.852415    8.255175    0.778305
    499 4    3.302070    7.704830    1.556611
    500 4    3.852415    8.255175    2.334916
    501 3    3.302070    7.704830    3.113221
    502 3    3.852415    8.255175    3.891527
    503 3    3.302070    7.704830    4.669832
    504 3    3.852415    8.255175    5.448138
    505 3    3.302070    7.704830    6.226443
    506 3    3.852415    8.255175    7.004748
    507 3    3.302070    7.704830    7.783054
    508 3    3.852415    8.255175    8.561359
    509 3    3.302070    7.704830    9.339664
    510 3    3.852415    8.255175   10.117970
    511 3    3.302070    7.704830   10.896275
    512 3    3.852415    8.255175   11.674580
    513 2    4.402760    0.000000    0.000000
    514 2    4.953105    0.550345    0.778305
    515 4    4.402760    0.000000    1.556611
    516 4    4.953105    0.550345    2.334916
    517 3    4.402760    0.000000    3.113221
    518 3    4.953105    0.550345    3.891527
    519 3    4.402760    0.000000    4.669832
    520 3    4.953105    0.550345    5.448138
    521 3    4.402760    0.000000    6.226443
    522 3    4.953105    0.550345    7.004748
    523 3    4.402760    0.000000    7.783054
    524 3    4.953105    0.550345    8.561359
    525 3    4.402760    0.000000    9.339664
    526 3    4.953105    0.550345   10.117970
    527 3    4.402760    0.000000   10.896275
    528 3    4.953105    0.550345   11.674580
    529 2    4.402760    1.100690    0.000000
    530 2    4.953105    1.651035    0.778305
    531 4    4.402760    1.100690    1.556611
    532 4    4.953105    1.651035    2.334916
    533 3    4.402760    1.100690    3.113221
    534 3    4.953105    1.651035    3.891527
    535 3    4.402760    1.100690    4.669832
    536 3    4.953105    1.651035    5.448138
    537 3    4.402760    1.100690    6.226443
    538 3    4.953105    1.651035    7.004748
    539 3    4.402760    1.100690    7.783054
    540 3    4.953105    1.651035    8.561359
    541 3    4.402760    1.100690    9.339664
    542 3    4.953105    1.651035   10.117970
    543 3    4.402760    1.100690   10.896275
    544 3    4.953105    1.651035   11.674580
    545 2    4.402760    2.201380    0.000000
    546 2    4.953105    2.751725    0.778305
    547 4    4.402760    2.201380    1.556611
    548 4    4.953105    2.751725    2.334916
    549 3    4.402760    2.201380    3.113221
    550 3    4.953105    2.751725    3.891527
    551 3    4.402760    2.201380    4.669832
    552 3    4.953105    2.751725    5.448138
    553 3    4.402760    2.201380    6.226443
    554 3    4.953105    2.751725    7.004748
    555 3    4.402760    2.201380    7.783054
    556 3    4.953105    2.751725    8.561359
    557 3    4.402760    2.201380    9.339664
    558 3    4.953105    2.751725   10.117970
    559 3    4.402760    2.201380   10.896275
    560 3    4.953105    2.751725   11.674580
    561 2    4.402760    3.302070    0.000000
    562 2    4.953105    3.852415    0.778305
    563 4    4.402760    3.302070    1.556611
    564 4    4.953105    3.852415    2.334916
    565 3    4.402760    3.302070    3.113221
    566 3    4.953105    3.852415    3.891527
    567 3    4.402760    3.302070    4.669832
    568 3    4.953105    3.852415    5.448138
    569 3    4.402760    3.302070    6.226443
    570 3    4.953105    3.852415    7.004748
    571 3    4.402760    3.302070    7.783054
    572 3    4.953105    3.852415    8.561359
    573 3    4.402760    3.302070    9.339664
    574 3    4.953105    3.852415   10.117970
    575 3    4.402760    3.302070   10.896275
    576 3    4.953105    3.852415   11.674580
    577 2    4.402760    4.402760    0.000000
    578 2    4.953105    4.953105    0.778305
    579 4    4.402760    4.402760    1.556611
    580 4    4.953105    4.953105    2.334916
    581 3    4.402760    4.402760    3.113221
    582 3    4.953105    4.953105    3.891527
    583 3    4.402760    4.402760    4.669832
    584 3    4.953105    4.953105    5.448138
    585 3    4.402760    4.402760    6.226443
    586 3    4.953105    4.953105    7.004748
    587 3    4.402760    4.402760    7.783054
    588 3    4.953105    4.953105    8.561359
    589 3    4.402760    4.402760    9.339664
    590 3    4.953105    4.953105   10.117970
    591 3    4.402760    4.402760   10.896275
    592 3    4.953105    4.953105   11.674580
    593 2    4.402760    5.503450    0.000000
    594 2    4.953105    6.053795    0.778305
    595 4    4.402760    5.503450    1.556611
    596 4    4.953105    6.053795    2.334916
    597 3    4.402760    5.503450    3.113221
    598 3    4.953105    6.053795    3.891527
    599 3    4.402760    5.503450    4.669832
    600 3    4.953105    6.053795    5.448138
    601 3    4.402760    5.503450    6.226443
    602 3    4.953105    6.053795    7.004748
    603 3    4.402760    5.503450    7.783054
    604 3    4.953105    6.053795    8.561359
    605 3    4.402760    5.503450    9.339664
    606 3    4.953105    6.053795   10.117970
    607 3    4.402760    5.503450   10.896275
    608 3    4.953105    6.053795   11.674580
    609 2    4.402760    6.604140    0.000000
    610 2    4.953105    7.154485    0.778305
    611 4    4.402760    6.604140    1.556611
    612 4    4.953105    7.154485    2.334916
    613 3    4.402760    6.604140    3.113221
    614 3    4.953105    7.154485    3.891527
    615 3    4.402760    6.604140    4.669832
    616 3    4.953105    7.154485    5.448138
    617 3    4.402760    6.604140    6.226443
    618 3    4.953105    7.154485    7.004748
    619 3    4.402760    6.604140    7.783054
    620 3    4.953105    7.154485    8.561359
    621 3    4.402760    6.604140    9.339664
    622 3    4.953105    7.154485   10.117970
    623 3    4.402760    6.604140   10.896275
    624 3    4.953105    7.154485   11.674580
    625 2    4.402760    7.704830    0.000000
    626 2    4.953105    8.255175    0.778305
    627 4    4.402760    7.704830    1.556611
    628 4    4.953105    8.255175    2.334916
    629 3    4.402760    7.704830    3.113221
    630 3    4.953105    8.255175    3.891527
    631 3    4.402760    7.704830    4.669832
    632 3    4.953105    8.255175    5.448138
    633 3    4.402760    7.704830    6.226443
    634 3    4.953105    8.255175    7.004748
    635 3    4.402760    7.704830    7.783054
    636 3    4.953105    8.255175    8.561359
    637 3    4.402760    7.704830    9.339664
    638 3    4.953105    8.255175   10.117970
    639 3    4.402760    7.704830   10.896275
    640 3    4.953105    8.255175   11.674580
    641 2    5.503450    0.000000    0.000000
    642 2    6.053795    0.550345    0.778305
    643 4    5.503450    0.000000    1.556611
    644 4    6.053795    0.550345    2.334916
    645 3    5.503450    0.000000    3.113221
    646 3    6.053795    0.550345    3.891527
    647 3    5.503450    0.000000    4.669832