
        3584 atoms

4 atom types

0.0         8.9009600 xlo xhi
0.0         8.9009600 ylo yhi
      -17.623002       57.274753 zlo zhi

Masses

1 1.000000
2 1.000000
3 1.000000
4 1.000000

Atoms
 
      1 2    0.000000    0.000000    0.000000
      2 2    0.556310    0.556310    0.786741
      3 1    0.000000    0.000000    1.573482
      4 1    0.556310    0.556310    2.360223
      5 1    0.000000    0.000000    3.146965
      6 1    0.556310    0.556310    3.933706
      7 1    0.000000    0.000000    4.720447
      8 1    0.556310    0.556310    5.507188
      9 1    0.000000    0.000000    6.293929
     10 1    0.556310    0.556310    7.080670
     11 1    0.000000    0.000000    7.867411
     12 1    0.556310    0.556310    8.654153
     13 1    0.000000    0.000000    9.440894
     14 1    0.556310    0.556310   10.227635
     15 1    0.000000    0.000000   11.014376
     16 1    0.556310    0.556310   11.801117
     17 1    0.000000    0.000000   12.587858
     18 1    0.556310    0.556310   13.374599
     19 1    0.000000    0.000000   14.161341
     20 1    0.556310    0.556310   14.948082
     21 1    0.000000    0.000000   15.734823
     22 1    0.556310    0.556310   16.521564
     23 1    0.000000    0.000000   17.308305
     24 1    0.556310    0.556310   18.095046
     25 1    0.000000    0.000000   18.881788
     26 1    0.556310    0.556310   19.668529
     27 1    0.000000    0.000000   20.455270
     28 1    0.556310    0.556310   21.242011
     29 1    0.000000    0.000000   22.028752
     30 1    0.556310    0.556310   22.815493
     31 1    0.000000    0.000000   23.602234
     32 1    0.556310    0.556310   24.388976
     33 1    0.000000    0.000000   25.175717
     34 1    0.556310    0.556310   25.962458
     35 1    0.000000    0.000000   26.749199
     36 1    0.556310    0.556310   27.535940
     37 1    0.000000    0.000000   28.322681
     38 1    0.556310    0.556310   29.109422
     39 1    0.000000    0.000000   29.896164
     40 1    0.556310    0.556310   30.682905
     41 1    0.000000    0.000000   31.469646
     42 1    0.556310    0.556310   32.256387
     43 4    0.000000    0.000000   33.043128
     44 4    0.556310    0.556310   33.829869
     45 3    0.000000    0.000000   34.616610
     46 3    0.556310    0.556310   35.403352
     47 3    0.000000    0.000000   36.190093
     48 3    0.556310    0.556310   36.976834
     49 3    0.000000    0.000000   37.763575
     50 3    0.556310    0.556310   38.550316
     51 3    0.000000    0.000000   39.337057
     52 3    0.556310    0.556310   40.123798
     53 3    0.000000    0.000000   40.910540
     54 3    0.556310    0.556310   41.697281
     55 3    0.000000    0.000000   42.484022
     56 3    0.556310    0.556310   43.270763
     57 2    0.000000    1.112620    0.000000
     58 2    0.556310    1.668930    0.786741
     59 1    0.000000    1.112620    1.573482
     60 1    0.556310    1.668930    2.360223
     61 1    0.000000    1.112620    3.146965
     62 1    0.556310    1.668930    3.933706
     63 1    0.000000    1.112620    4.720447
     64 1    0.556310    1.668930    5.507188
     65 1    0.000000    1.112620    6.293929
     66 1    0.556310    1.668930    7.080670
     67 1    0.000000    1.112620    7.867411
     68 1    0.556310    1.668930    8.654153
     69 1    0.000000    1.112620    9.440894
     70 1    0.556310    1.668930   10.227635
     71 1    0.000000    1.112620   11.014376
     72 1    0.556310    1.668930   11.801117
     73 1    0.000000    1.112620   12.587858
     74 1    0.556310    1.668930   13.374599
     75 1    0.000000    1.112620   14.161341
     76 1    0.556310    1.668930   14.948082
     77 1    0.000000    1.112620   15.734823
     78 1    0.556310    1.668930   16.521564
     79 1    0.000000    1.112620   17.308305
     80 1    0.556310    1.668930   18.095046
     81 1    0.000000    1.112620   18.881788
     82 1    0.556310    1.668930   19.668529
     83 1    0.000000    1.112620   20.455270
     84 1    0.556310    1.668930   21.242011
     85 1    0.000000    1.112620   22.028752
     86 1    0.556310    1.668930   22.815493
     87 1    0.000000    1.112620   23.602234
     88 1    0.556310    1.668930   24.388976
     89 1    0.000000    1.112620   25.175717
     90 1    0.556310    1.668930   25.962458
     91 1    0.000000    1.112620   26.749199
     92 1    0.556310    1.668930   27.535940
     93 1    0.000000    1.112620   28.322681
     94 1    0.556310    1.668930   29.109422
     95 1    0.000000    1.112620   29.896164
     96 1    0.556310    1.668930   30.682905
     97 1    0.000000    1.112620   31.469646
     98 1    0.556310    1.668930   32.256387
     99 4    0.000000    1.112620   33.043128
    100 4    0.556310    1.668930   33.829869
    101 3    0.000000    1.112620   34.616610
    102 3    0.556310    1.668930   35.403352
    103 3    0.000000    1.112620   36.190093
    104 3    0.556310    1.668930   36.976834
    105 3    0.000000    1.112620   37.763575
    106 3    0.556310    1.668930   38.550316
    107 3    0.000000    1.112620   39.337057
    108 3    0.556310    1.668930   40.123798
    109 3    0.000000    1.112620   40.910540
    110 3    0.556310    1.668930   41.697281
    111 3    0.000000    1.112620   42.484022
    112 3    0.556310    1.668930   43.270763
    113 2    0.000000    2.225240    0.000000
    114 2    0.556310    2.781550    0.786741
    115 1    0.000000    2.225240    1.573482
    116 1    0.556310    2.781550    2.360223
    117 1    0.000000    2.225240    3.146965
    118 1    0.556310    2.781550    3.933706
    119 1    0.000000    2.225240    4.720447
    120 1    0.556310    2.781550    5.507188
    121 1    0.000000    2.225240    6.293929
    122 1    0.556310    2.781550    7.080670
    123 1    0.000000    2.225240    7.867411
    124 1    0.556310    2.781550    8.654153
    125 1    0.000000    2.225240    9.440894
    126 1    0.556310    2.781550   10.227635
    127 1    0.000000    2.225240   11.014376
    128 1    0.556310    2.781550   11.801117
    129 1    0.000000    2.225240   12.587858
    130 1    0.556310    2.781550   13.374599
    131 1    0.000000    2.225240   14.161341
    132 1    0.556310    2.781550   14.948082
    133 1    0.000000    2.225240   15.734823
    134 1    0.556310    2.781550   16.521564
    135 1    0.000000    2.225240   17.308305
    136 1    0.556310    2.781550   18.095046
    137 1    0.000000    2.225240   18.881788
    138 1    0.556310    2.781550   19.668529
    139 1    0.000000    2.225240   20.455270
    140 1    0.556310    2.781550   21.242011
    141 1    0.000000    2.225240   22.028752
    142 1    0.556310    2.781550   22.815493
    143 1    0.000000    2.225240   23.602234
    144 1    0.556310    2.781550   24.388976
    145 1    0.000000    2.225240   25.175717
    146 1    0.556310    2.781550   25.962458
    147 1    0.000000    2.225240   26.749199
    148 1    0.556310    2.781550   27.535940
    149 1    0.000000    2.225240   28.322681
    150 1    0.556310    2.781550   29.109422
    151 1    0.000000    2.225240   29.896164
    152 1    0.556310    2.781550   30.682905
    153 1    0.000000    2.225240   31.469646
    154 1    0.556310    2.781550   32.256387
    155 4    0.000000    2.225240   33.043128
    156 4    0.556310    2.781550   33.829869
    157 3    0.000000    2.225240   34.616610
    158 3    0.556310    2.781550   35.403352
    159 3    0.000000    2.225240   36.190093
    160 3    0.556310    2.781550   36.976834
    161 3    0.000000    2.225240   37.763575
    162 3    0.556310    2.781550   38.550316
    163 3    0.000000    2.225240   39.337057
    164 3    0.556310    2.781550   40.123798
    165 3    0.000000    2.225240   40.910540
    166 3    0.556310    2.781550   41.697281
    167 3    0.000000    2.225240   42.484022
    168 3    0.556310    2.781550   43.270763
    169 2    0.000000    3.337860    0.000000
    170 2    0.556310    3.894170    0.786741
    171 1    0.000000    3.337860    1.573482
    172 1    0.556310    3.894170    2.360223
    173 1    0.000000    3.337860    3.146965
    174 1    0.556310    3.894170    3.933706
    175 1    0.000000    3.337860    4.720447
    176 1    0.556310    3.894170    5.507188
    177 1    0.000000    3.337860    6.293929
    178 1    0.556310    3.894170    7.080670
    179 1    0.000000    3.337860    7.867411
    180 1    0.556310    3.894170    8.654153
    181 1    0.000000    3.337860    9.440894
    182 1    0.556310    3.894170   10.227635
    183 1    0.000000    3.337860   11.014376
    184 1    0.556310    3.894170   11.801117
    185 1    0.000000    3.337860   12.587858
    186 1    0.556310    3.894170   13.374599
    187 1    0.000000    3.337860   14.161341
    188 1    0.556310    3.894170   14.948082
    189 1    0.000000    3.337860   15.734823
    190 1    0.556310    3.894170   16.521564
    191 1    0.000000    3.337860   17.308305
    192 1    0.556310    3.894170   18.095046
    193 1    0.000000    3.337860   18.881788
    194 1    0.556310    3.894170   19.668529
    195 1    0.000000    3.337860   20.455270
    196 1    0.556310    3.894170   21.242011
    197 1    0.000000    3.337860   22.028752
    198 1    0.556310    3.894170   22.815493
    199 1    0.000000    3.337860   23.602234
    200 1    0.556310    3.894170   24.388976
    201 1    0.000000    3.337860   25.175717
    202 1    0.556310    3.894170   25.962458
    203 1    0.000000    3.337860   26.749199
    204 1    0.556310    3.894170   27.535940
    205 1    0.000000    3.337860   28.322681
    206 1    0.556310    3.894170   29.109422
    207 1    0.000000    3.337860   29.896164
    208 1    0.556310    3.894170   30.682905
    209 1    0.000000    3.337860   31.469646
    210 1    0.556310    3.894170   32.256387
    211 4    0.000000    3.337860   33.043128
    212 4    0.556310    3.894170   33.829869
    213 3    0.000000    3.337860   34.616610
    214 3    0.556310    3.894170   35.403352
    215 3    0.000000    3.337860   36.190093
    216 3    0.556310    3.894170   36.976834
    217 3    0.000000    3.337860   37.763575
    218 3    0.556310    3.894170   38.550316
    219 3    0.000000    3.337860   39.337057
    220 3    0.556310    3.894170   40.123798
    221 3    0.000000    3.337860   40.910540
    222 3    0.556310    3.894170   41.697281
    223 3    0.000000    3.337860   42.484022
    224 3    0.556310    3.894170   43.270763
    225 2    0.000000    4.450480    0.000000
    226 2    0.556310    5.006790    0.786741
    227 1    0.000000    4.450480    1.573482
    228 1    0.556310    5.006790    2.360223
    229 1    0.000000    4.450480    3.146965
    230 1    0.556310    5.006790    3.933706
    231 1    0.000000    4.450480    4.720447
    232 1    0.556310    5.006790    5.507188
    233 1    0.000000    4.450480    6.293929
    234 1    0.556310    5.006790    7.080670
    235 1    0.000000    4.450480    7.867411
    236 1    0.556310    5.006790    8.654153
    237 1    0.000000    4.450480    9.440894
    238 1    0.556310    5.006790   10.227635
    239 1    0.000000    4.450480   11.014376
    240 1    0.556310    5.006790   11.801117
    241 1    0.000000    4.450480   12.587858
    242 1    0.556310    5.006790   13.374599
    243 1    0.000000    4.450480   14.161341
    244 1    0.556310    5.006790   14.948082
    245 1    0.000000    4.450480   15.734823
    246 1    0.556310    5.006790   16.521564
    247 1    0.000000    4.450480   17.308305
    248 1    0.556310    5.006790   18.095046
    249 1    0.000000    4.450480   18.881788
    250 1    0.556310    5.006790   19.668529
    251 1    0.000000    4.450480   20.455270
    252 1    0.556310    5.006790   21.242011
    253 1    0.000000    4.450480   22.028752
    254 1    0.556310    5.006790   22.815493
    255 1    0.000000    4.450480   23.602234
    256 1    0.556310    5.006790   24.388976
    257 1    0.000000    4.450480   25.175717
    258 1    0.556310    5.006790   25.962458
    259 1    0.000000    4.450480   26.749199
    260 1    0.556310    5.006790   27.535940
    261 1    0.000000    4.450480   28.322681
    262 1    0.556310    5.006790   29.109422
    263 1    0.000000    4.450480   29.896164
    264 1    0.556310    5.006790   30.682905
    265 1    0.000000    4.450480   31.469646
    266 1    0.556310    5.006790   32.256387
    267 4    0.000000    4.450480   33.043128
    268 4    0.556310    5.006790   33.829869
    269 3    0.000000    4.450480   34.616610
    270 3    0.556310    5.006790   35.403352
    271 3    0.000000    4.450480   36.190093
    272 3    0.556310    5.006790   36.976834
    273 3    0.000000    4.450480   37.763575
    274 3    0.556310    5.006790   38.550316
    275 3    0.000000    4.450480   39.337057
    276 3    0.556310    5.006790   40.123798
    277 3    0.000000    4.450480   40.910540
    278 3    0.556310    5.006790   41.697281
    279 3    0.000000    4.450480   42.484022
    280 3    0.556310    5.006790   43.270763
    281 2    0.000000    5.563100    0.000000
    282 2    0.556310    6.119410    0.786741
    283 1    0.000000    5.563100    1.573482
    284 1    0.556310    6.119410    2.360223
    285 1    0.000000    5.563100    3.146965
    286 1    0.556310    6.119410    3.933706
    287 1    0.000000    5.563100    4.720447
    288 1    0.556310    6.119410    5.507188
    289 1    0.000000    5.563100    6.293929
    290 1    0.556310    6.119410    7.080670
    291 1    0.000000    5.563100    7.867411
    292 1    0.556310    6.119410    8.654153
    293 1    0.000000    5.563100    9.440894
    294 1    0.556310    6.119410   10.227635
    295 1    0.000000    5.563100   11.014376
    296 1    0.556310    6.119410   11.801117
    297 1    0.000000    5.563100   12.587858
    298 1    0.556310    6.119410   13.374599
    299 1    0.000000    5.563100   14.161341
    300 1    0.556310    6.119410   14.948082
    301 1    0.000000    5.563100   15.734823
    302 1    0.556310    6.119410   16.521564
    303 1    0.000000    5.563100   17.308305
    304 1    0.556310    6.119410   18.095046
    305 1    0.000000    5.563100   18.881788
    306 1    0.556310    6.119410   19.668529
    307 1    0.000000    5.563100   20.455270
    308 1    0.556310    6.119410   21.242011
    309 1    0.000000    5.563100   22.028752
    310 1    0.556310    6.119410   22.815493
    311 1    0.000000    5.563100   23.602234
    312 1    0.556310    6.119410   24.388976
    313 1    0.000000    5.563100   25.175717
    314 1    0.556310    6.119410   25.962458
    315 1    0.000000    5.563100   26.749199
    316 1    0.556310    6.119410   27.535940
    317 1    0.000000    5.563100   28.322681
    318 1    0.556310    6.119410   29.109422
    319 1    0.000000    5.563100   29.896164
    320 1    0.556310    6.119410   30.682905
    321 1    0.000000    5.563100   31.469646
    322 1    0.556310    6.119410   32.256387
    323 4    0.000000    5.563100   33.043128
    324 4    0.556310    6.119410   33.829869
    325 3    0.000000    5.563100   34.616610
    326 3    0.556310    6.119410   35.403352
    327 3    0.000000    5.563100   36.190093
    328 3    0.556310    6.119410   36.976834
    329 3    0.000000    5.563100   37.763575
    330 3    0.556310    6.119410   38.550316
    331 3    0.000000    5.563100   39.337057
    332 3    0.556310    6.119410   40.123798
    333 3    0.000000    5.563100   40.910540
    334 3    0.556310    6.119410   41.697281
    335 3    0.000000    5.563100   42.484022
    336 3    0.556310    6.119410   43.270763
    337 2    0.000000    6.675720    0.000000
    338 2    0.556310    7.232030    0.786741
    339 1    0.000000    6.675720    1.573482
    340 1    0.556310    7.232030    2.360223
    341 1    0.000000    6.675720    3.146965
    342 1    0.556310    7.232030    3.933706
    343 1    0.000000    6.675720    4.720447
    344 1    0.556310    7.232030    5.507188
    345 1    0.000000    6.675720    6.293929
    346 1    0.556310    7.232030    7.080670
    347 1    0.000000    6.675720    7.867411
    348 1    0.556310    7.232030    8.654153
    349 1    0.000000    6.675720    9.440894
    350 1    0.556310    7.232030   10.227635
    351 1    0.000000    6.675720   11.014376
    352 1    0.556310    7.232030   11.801117
    353 1    0.000000    6.675720   12.587858
    354 1    0.556310    7.232030   13.374599
    355 1    0.000000    6.675720   14.161341
    356 1    0.556310    7.232030   14.948082
    357 1    0.000000    6.675720   15.734823
    358 1    0.556310    7.232030   16.521564
    359 1    0.000000    6.675720   17.308305
    360 1    0.556310    7.232030   18.095046
    361 1    0.000000    6.675720   18.881788
    362 1    0.556310    7.232030   19.668529
    363 1    0.000000    6.675720   20.455270
    364 1    0.556310    7.232030   21.242011
    365 1    0.000000    6.675720   22.028752
    366 1    0.556310    7.232030   22.815493
    367 1    0.000000    6.675720   23.602234
    368 1    0.556310    7.232030   24.388976
    369 1    0.000000    6.675720   25.175717
    370 1    0.556310    7.232030   25.962458
    371 1    0.000000    6.675720   26.749199
    372 1    0.556310    7.232030   27.535940
    373 1    0.000000    6.675720   28.322681
    374 1    0.556310    7.232030   29.109422
    375 1    0.000000    6.675720   29.896164
    376 1    0.556310    7.232030   30.682905
    377 1    0.000000    6.675720   31.469646
    378 1    0.556310    7.232030   32.256387
    379 4    0.000000    6.675720   33.043128
    380 4    0.556310    7.232030   33.829869
    381 3    0.000000    6.675720   34.616610
    382 3    0.556310    7.232030   35.403352
    383 3    0.000000    6.675720   36.190093
    384 3    0.556310    7.232030   36.976834
    385 3    0.000000    6.675720   37.763575
    386 3    0.556310    7.232030   38.550316
    387 3    0.000000    6.675720   39.337057
    388 3    0.556310    7.232030   40.123798
    389 3    0.000000    6.675720   40.910540
    390 3    0.556310    7.232030   41.697281
    391 3    0.000000    6.675720   42.484022
    392 3    0.556310    7.232030   43.270763
    393 2    0.000000    7.788340    0.000000
    394 2    0.556310    8.344650    0.786741
    395 1    0.000000    7.788340    1.573482
    396 1    0.556310    8.344650    2.360223
    397 1    0.000000    7.788340    3.146965
    398 1    0.556310    8.344650    3.933706
    399 1    0.000000    7.788340    4.720447
    400 1    0.556310    8.344650    5.507188
    401 1    0.000000    7.788340    6.293929
    402 1    0.556310    8.344650    7.080670
    403 1    0.000000    7.788340    7.867411
    404 1    0.556310    8.344650    8.654153
    405 1    0.000000    7.788340    9.440894
    406 1    0.556310    8.344650   10.227635
    407 1    0.000000    7.788340   11.014376
    408 1    0.556310    8.344650   11.801117
    409 1    0.000000    7.788340   12.587858
    410 1    0.556310    8.344650   13.374599
    411 1    0.000000    7.788340   14.161341
    412 1    0.556310    8.344650   14.948082
    413 1    0.000000    7.788340   15.734823
    414 1    0.556310    8.344650   16.521564
    415 1    0.000000    7.788340   17.308305
    416 1    0.556310    8.344650   18.095046
    417 1    0.000000    7.788340   18.881788
    418 1    0.556310    8.344650   19.668529
    419 1    0.000000    7.788340   20.455270
    420 1    0.556310    8.344650   21.242011
    421 1    0.000000    7.788340   22.028752
    422 1    0.556310    8.344650   22.815493
    423 1    0.000000    7.788340   23.602234
    424 1    0.556310    8.344650   24.388976
    425 1    0.000000    7.788340   25.175717
    426 1    0.556310    8.344650   25.962458
    427 1    0.000000    7.788340   26.749199
    428 1    0.556310    8.344650   27.535940
    429 1    0.000000    7.788340   28.322681
    430 1    0.556310    8.344650   29.109422
    431 1    0.000000    7.788340   29.896164
    432 1    0.556310    8.344650   30.682905
    433 1    0.000000    7.788340   31.469646
    434 1    0.556310    8.344650   32.256387
    435 4    0.000000    7.788340   33.043128
    436 4    0.556310    8.344650   33.829869
    437 3    0.000000    7.788340   34.616610
    438 3    0.556310    8.344650   35.403352
    439 3    0.000000    7.788340   36.190093
    440 3    0.556310    8.344650   36.976834
    441 3    0.000000    7.788340   37.763575
    442 3    0.556310    8.344650   38.550316
    443 3    0.000000    7.788340   39.337057
    444 3    0.556310    8.344650   40.123798
    445 3    0.000000    7.788340   40.910540
    446 3    0.556310    8.344650   41.697281
    447 3    0.000000    7.788340   42.484022
    448 3    0.556310    8.344650   43.270763
    449 2    1.112620    0.000000    0.000000
    450 2    1.668930    0.556310    0.786741
    451 1    1.112620    0.000000    1.573482
    452 1    1.668930    0.556310    2.360223
    453 1    1.112620    0.000000    3.146965
    454 1    1.668930    0.556310    3.933706
    455 1    1.112620    0.000000    4.720447
    456 1    1.668930    0.556310    5.507188
    457 1    1.112620    0.000000    6.293929
    458 1    1.668930    0.556310    7.080670
    459 1    1.112620    0.000000    7.867411
    460 1    1.668930    0.556310    8.654153
    461 1    1.112620    0.000000    9.440894
    462 1    1.668930    0.556310   10.227635
    463 1    1.112620    0.000000   11.014376
    464 1    1.668930    0.556310   11.801117
    465 1    1.112620    0.000000   12.587858
    466 1    1.668930    0.556310   13.374599
    467 1    1.112620    0.000000   14.161341
    468 1    1.668930    0.556310   14.948082
    469 1    1.112620    0.000000   15.734823
    470 1    1.668930    0.556310   16.521564
    471 1    1.112620    0.000000   17.308305
    472 1    1.668930    0.556310   18.095046
    473 1    1.112620    0.000000   18.881788
    474 1    1.668930    0.556310   19.668529
    475 1    1.112620    0.000000   20.455270
    476 1    1.668930    0.556310   21.242011
    477 1    1.112620    0.000000   22.028752
    478 1    1.668930    0.556310   22.815493
    479 1    1.112620    0.000000   23.602234
    480 1    1.668930    0.556310   24.388976
    481 1    1.112620    0.000000   25.175717
    482 1    1.668930    0.556310   25.962458
    483 1    1.112620    0.000000   26.749199
    484 1    1.668930    0.556310   27.535940
    485 1    1.112620    0.000000   28.322681
    486 1    1.668930    0.556310   29.109422
    487 1    1.112620    0.000000   29.896164
    488 1    1.668930    0.556310   30.682905
    489 1    1.112620    0.000000   31.469646
    490 1    1.668930    0.556310   32.256387
    491 4    1.112620    0.000000   33.043128
    492 4    1.668930    0.556310   33.829869
    493 3    1.112620    0.000000   34.616610
    494 3    1.668930    0.556310   35.403352
    495 3    1.112620    0.000000   36.190093
    496 3    1.668930    0.556310   36.976834
    497 3    1.112620    0.000000   37.763575
    498 3    1.668930    0.556310   38.550316
    499 3    1.112620    0.000000   39.337057
    500 3    1.668930    0.556310   40.123798
    501 3    1.112620    0.000000   40.910540
    502 3    1.668930    0.556310   41.697281
    503 3    1.112620    0.000000   42.484022
    504 3    1.668930    0.556310   43.270763
    505 2    1.112620    1.112620    0.000000
    506 2    1.668930    1.668930    0.786741
    507 1    1.112620    1.112620    1.573482
    508 1    1.668930    1.668930    2.360223
    509 1    1.112620    1.112620    3.146965
    510 1    1.668930    1.668930    3.933706
    511 1    1.112620    1.112620    4.720447
    512 1    1.668930    1.668930    5.507188
    513 1    1.112620    1.112620    6.293929
    514 1    1.668930    1.668930    7.080670
    515 1    1.112620    1.112620    7.867411
    516 1    1.668930    1.668930    8.654153
    517 1    1.112620    1.112620    9.440894
    518 1    1.668930    1.668930   10.227635
    519 1    1.112620    1.112620   11.014376
    520 1    1.668930    1.668930   11.801117
    521 1    1.112620    1.112620   12.587858
    522 1    1.668930    1.668930   13.374599
    523 1    1.112620    1.112620   14.161341
    524 1    1.668930    1.668930   14.948082
    525 1    1.112620    1.112620   15.734823
    526 1    1.668930    1.668930   16.521564
    527 1    1.112620    1.112620   17.308305
    528 1    1.668930    1.668930   18.095046
    529 1    1.112620    1.112620   18.881788
    530 1    1.668930    1.668930   19.668529
    531 1    1.112620    1.112620   20.455270
    532 1    1.668930    1.668930   21.242011
    533 1    1.112620    1.112620   22.028752
    534 1    1.668930    1.668930   22.815493
    535 1    1.112620    1.112620   23.602234
    536 1    1.668930    1.668930   24.388976
    537 1    1.112620    1.112620   25.175717
    538 1    1.668930    1.668930   25.962458
    539 1    1.112620    1.112620   26.749199
    540 1    1.668930    1.668930   27.535940
    541 1    1.112620    1.112620   28.322681
    542 1    1.668930    1.668930   29.109422
    543 1    1.112620    1.112620   29.896164
    544 1    1.668930    1.668930   30.682905
    545 1    1.112620    1.112620   31.469646
    546 1    1.668930    1.668930   32.256387
    547 4    1.112620    1.112620   33.043128
    548 4    1.668930    1.668930   33.829869
    549 3    1.112620    1.112620   34.616610
    550 3    1.668930    1.668930   35.403352
    551 3    1.112620    1.112620   36.190093
    552 3    1.668930    1.668930   36.976834
    553 3    1.112620    1.112620   37.763575
    554 3    1.668930    1.668930   38.550316
    555 3    1.112620    1.112620   39.337057
    556 3    1.668930    1.668930   40.123798
    557 3    1.112620    1.112620   40.910540
    558 3    1.668930    1.668930   41.697281
    559 3    1.112620    1.112620   42.484022
    560 3    1.668930    1.668930   43.270763
    561 2    1.112620    2.225240    0.000000
    562 2    1.668930    2.781550    0.786741
    563 1    1.112620    2.225240    1.573482
    564 1    1.668930    2.781550    2.360223
    565 1    1.112620    2.225240    3.146965
    566 1    1.668930    2.781550    3.933706
    567 1    1.112620    2.225240    4.720447
    568 1    1.668930    2.781550    5.507188
    569 1    1.112620    2.225240    6.293929
    570 1    1.668930    2.781550    7.080670
    571 1    1.112620    2.225240    7.867411
    572 1    1.668930    2.781550    8.654153
    573 1    1.112620    2.225240    9.440894
    574 1    1.668930    2.781550   10.227635
    575 1    1.112620    2.225240   11.014376
    576 1    1.668930    2.781550   11.801117
    577 1    1.112620    2.225240   12.587858
    578 1    1.668930    2.781550   13.374599
    579 1    1.112620    2.225240   14.161341
    580 1    1.668930    2.781550   14.948082
    581 1    1.112620    2.225240   15.734823
    582 1    1.668930    2.781550   16.521564
    583 1    1.112620    2.225240   17.308305
    584 1    1.668930    2.781550   18.095046
    585 1    1.112620    2.225240   18.881788
    586 1    1.668930    2.781550   19.668529
    587 1    1.112620    2.225240   20.455270
    588 1    1.668930    2.781550   21.242011
    589 1    1.112620    2.225240   22.028752
    590 1    1.668930    2.781550   22.815493
    591 1    1.112620    2.225240   23.602234
    592 1    1.668930    2.781550   24.388976
    593 1    1.112620    2.225240   25.175717
    594 1    1.668930    2.781550   25.962458
    595 1    1.112620    2.225240   26.749199
    596 1    1.668930    2.781550   27.535940
    597 1    1.112620    2.225240   28.322681
    598 1    1.668930    2.781550   29.109422
    599 1    1.112620    2.225240   29.896164
    600 1    1.668930    2.781550   30.682905
    601 1    1.112620    2.225240   31.469646
    602 1    1.668930    2.781550   32.256387
    603 4    1.112620    2.225240   33.043128
    604 4    1.668930    2.781550   33.829869
    605 3    1.112620    2.225240   34.616610
    606 3    1.668930    2.781550   35.403352
    607 3    1.112620    2.225240   36.190093
    608 3    1.668930    2.781550   36.976834
    609 3    1.112620    2.225240   37.763575
    610 3    1.668930    2.781550   38.550316
    611 3    1.112620    2.225240   39.337057
    612 3    1.668930    2.781550   40.123798
    613 3    1.112620    2.225240   40.910540
    614 3    1.668930    2.781550   41.697281
    615 3    1.112620    2.225240   42.484022
    616 3    1.668930    2.781550   43.270763
    617 2    1.112620    3.337860    0.000000
    618 2    1.668930    3.894170    0.786741
    619 1    1.112620    3.337860    1.573482
    620 1    1.668930    3.894170    2.360223
    621 1    1.112620    3.337860    3.146965
    622 1    1.668930    3.894170    3.933706
    623 1    1.112620    3.337860    4.720447
    624 1    1.668930    3.894170    5.507188
    625 1    1.112620    3.337860    6.293929
    626 1    1.668930    3.894170    7.080670
    627 1    1.112620    3.337860    7.867411
    628 1    1.668930    3.894170    8.654153
    629 1    1.112620    3.337860    9.440894
    630 1    1.668930    3.894170   10.227635
    631 1    1.112620    3.337860   11.014376
    632 1    1.668930    3.894170   11.801117
    633 1    1.112620    3.337860   12.587858
    634 1    1.668930    3.894170   13.374599
    635 1    1.112620    3.337860   14.161341
    636 1    1.668930    3.894170   14.948082
    637 1    1.112620    3.337860   15.734823
    638 1    1.668930    3.894170   16.521564
    639 1    1.112620    3.337860   17.308305
    640 1    1.668930    3.894170   18.095046
    641 1    1.112620    3.337860   18.881788
    642 1    1.668930    3.894170   19.668529
    643 1    1.112620    3.337860   20.455270
    644 1    1.668930    3.894170   21.242011
    645 1    1.112620    3.337860   22.028752
    646 1    1.668930    3.894170   22.815493
    647 1    1.112620    3.337860   23.602234