
         512 atoms

4 atom types

0.0         8.9008000 xlo xhi
0.0         8.9008000 ylo yhi
      -2.5175265       8.1819605 zlo zhi

Masses

1 1.000000
2 1.000000
3 1.000000
4 1.000000

Atoms
 
      1 2      0.0000      0.0000      0.0000    0    0    1      0.0000      0.0000      0.0000
      2 2      0.5563      0.5563      0.7867    0    0    0      0.5563      0.5563      0.7867
      3 3      0.0000      0.0000      1.5735 0 0 0 0.0 0.0 0.0
      4 3      0.5563      0.5563      2.3602 0 0 0 0.0 0.0 0.0
      5 3      0.0000      0.0000      3.1469 0 0 0 0.0 0.0 0.0
      6 3      0.5563      0.5563      3.9336 0 0 0 0.0 0.0 0.0
      7 3      0.0000      0.0000      4.7204 0 0 0 0.0 0.0 0.0
      8 3      0.5563      0.5563      5.5071 0 0 0 0.0 0.0 0.0
      9 2      0.0000      1.1126      0.0000    0    1    1      0.0000      1.1126      0.0000
     10 2      0.5563      1.6689      0.7867    0    1    0      0.5563      1.6689      0.7867
     11 3      0.0000      1.1126      1.5735 0 0 0 0.0 0.0 0.0
     12 3      0.5563      1.6689      2.3602 0 0 0 0.0 0.0 0.0
     13 3      0.0000      1.1126      3.1469 0 0 0 0.0 0.0 0.0
     14 3      0.5563      1.6689      3.9336 0 0 0 0.0 0.0 0.0
     15 3      0.0000      1.1126      4.7204 0 0 0 0.0 0.0 0.0
     16 3      0.5563      1.6689      5.5071 0 0 0 0.0 0.0 0.0
     17 2      0.0000      2.2252      0.0000    0    2    1      0.0000      2.2252      0.0000
     18 2      0.5563      2.7815      0.7867    0    2    0      0.5563      2.7815      0.7867
     19 3      0.0000      2.2252      1.5735 0 0 0 0.0 0.0 0.0
     20 3      0.5563      2.7815      2.3602 0 0 0 0.0 0.0 0.0
     21 3      0.0000      2.2252      3.1469 0 0 0 0.0 0.0 0.0
     22 3      0.5563      2.7815      3.9336 0 0 0 0.0 0.0 0.0
     23 3      0.0000      2.2252      4.7204 0 0 0 0.0 0.0 0.0
     24 3      0.5563      2.7815      5.5071 0 0 0 0.0 0.0 0.0
     25 2      0.0000      3.3378      0.0000    0    3    1      0.0000      3.3378      0.0000
     26 2      0.5563      3.8941      0.7867    0    3    0      0.5563      3.8941      0.7867
     27 3      0.0000      3.3378      1.5735 0 0 0 0.0 0.0 0.0
     28 3      0.5563      3.8941      2.3602 0 0 0 0.0 0.0 0.0
     29 3      0.0000      3.3378      3.1469 0 0 0 0.0 0.0 0.0
     30 3      0.5563      3.8941      3.9336 0 0 0 0.0 0.0 0.0
     31 3      0.0000      3.3378      4.7204 0 0 0 0.0 0.0 0.0
     32 3      0.5563      3.8941      5.5071 0 0 0 0.0 0.0 0.0
     33 2      0.0000      4.4504      0.0000    0    4    1      0.0000      4.4504      0.0000
     34 2      0.5563      5.0067      0.7867    0    4    0      0.5563      5.0067      0.7867
     35 3      0.0000      4.4504      1.5735 0 0 0 0.0 0.0 0.0
     36 3      0.5563      5.0067      2.3602 0 0 0 0.0 0.0 0.0
     37 3      0.0000      4.4504      3.1469 0 0 0 0.0 0.0 0.0
     38 3      0.5563      5.0067      3.9336 0 0 0 0.0 0.0 0.0
     39 3      0.0000      4.4504      4.7204 0 0 0 0.0 0.0 0.0
     40 3      0.5563      5.0067      5.5071 0 0 0 0.0 0.0 0.0
     41 2      0.0000      5.5630      0.0000    0    5    1      0.0000      5.5630      0.0000
     42 2      0.5563      6.1193      0.7867    0    5    0      0.5563      6.1193      0.7867
     43 3      0.0000      5.5630      1.5735 0 0 0 0.0 0.0 0.0
     44 3      0.5563      6.1193      2.3602 0 0 0 0.0 0.0 0.0
     45 3      0.0000      5.5630      3.1469 0 0 0 0.0 0.0 0.0
     46 3      0.5563      6.1193      3.9336 0 0 0 0.0 0.0 0.0
     47 3      0.0000      5.5630      4.7204 0 0 0 0.0 0.0 0.0
     48 3      0.5563      6.1193      5.5071 0 0 0 0.0 0.0 0.0
     49 2      0.0000      6.6756      0.0000    0    6    1      0.0000      6.6756      0.0000
     50 2      0.5563      7.2319      0.7867    0    6    0      0.5563      7.2319      0.7867
     51 3      0.0000      6.6756      1.5735 0 0 0 0.0 0.0 0.0
     52 3      0.5563      7.2319      2.3602 0 0 0 0.0 0.0 0.0
     53 3      0.0000      6.6756      3.1469 0 0 0 0.0 0.0 0.0
     54 3      0.5563      7.2319      3.9336 0 0 0 0.0 0.0 0.0
     55 3      0.0000      6.6756      4.7204 0 0 0 0.0 0.0 0.0
     56 3      0.5563      7.2319      5.5071 0 0 0 0.0 0.0 0.0
     57 2      0.0000      7.7882      0.0000    0    7    1      0.0000      7.7882      0.0000
     58 2      0.5563      8.3445      0.7867    0    7    0      0.5563      8.3445      0.7867
     59 3      0.0000      7.7882      1.5735 0 0 0 0.0 0.0 0.0
     60 3      0.5563      8.3445      2.3602 0 0 0 0.0 0.0 0.0
     61 3      0.0000      7.7882      3.1469 0 0 0 0.0 0.0 0.0
     62 3      0.5563      8.3445      3.9336 0 0 0 0.0 0.0 0.0
     63 3      0.0000      7.7882      4.7204 0 0 0 0.0 0.0 0.0
     64 3      0.5563      8.3445      5.5071 0 0 0 0.0 0.0 0.0
     65 2      1.1126      0.0000      0.0000    1    0    1      1.1126      0.0000      0.0000
     66 2      1.6689      0.5563      0.7867    1    0    0      1.6689      0.5563      0.7867
     67 3      1.1126      0.0000      1.5735 0 0 0 0.0 0.0 0.0
     68 3      1.6689      0.5563      2.3602 0 0 0 0.0 0.0 0.0
     69 3      1.1126      0.0000      3.1469 0 0 0 0.0 0.0 0.0
     70 3      1.6689      0.5563      3.9336 0 0 0 0.0 0.0 0.0
     71 3      1.1126      0.0000      4.7204 0 0 0 0.0 0.0 0.0
     72 3      1.6689      0.5563      5.5071 0 0 0 0.0 0.0 0.0
     73 2      1.1126      1.1126      0.0000    1    1    1      1.1126      1.1126      0.0000
     74 2      1.6689      1.6689      0.7867    1    1    0      1.6689      1.6689      0.7867
     75 3      1.1126      1.1126      1.5735 0 0 0 0.0 0.0 0.0
     76 3      1.6689      1.6689      2.3602 0 0 0 0.0 0.0 0.0
     77 3      1.1126      1.1126      3.1469 0 0 0 0.0 0.0 0.0
     78 3      1.6689      1.6689      3.9336 0 0 0 0.0 0.0 0.0
     79 3      1.1126      1.1126      4.7204 0 0 0 0.0 0.0 0.0
     80 3      1.6689      1.6689      5.5071 0 0 0 0.0 0.0 0.0
     81 2      1.1126      2.2252      0.0000    1    2    1      1.1126      2.2252      0.0000
     82 2      1.6689      2.7815      0.7867    1    2    0      1.6689      2.7815      0.7867
     83 3      1.1126      2.2252      1.5735 0 0 0 0.0 0.0 0.0
     84 3      1.6689      2.7815      2.3602 0 0 0 0.0 0.0 0.0
     85 3      1.1126      2.2252      3.1469 0 0 0 0.0 0.0 0.0
     86 3      1.6689      2.7815      3.9336 0 0 0 0.0 0.0 0.0
     87 3      1.1126      2.2252      4.7204 0 0 0 0.0 0.0 0.0
     88 3      1.6689      2.7815      5.5071 0 0 0 0.0 0.0 0.0
     89 2      1.1126      3.3378      0.0000    1    3    1      1.1126      3.3378      0.0000
     90 2      1.6689      3.8941      0.7867    1    3    0      1.6689      3.8941      0.7867
     91 3      1.1126      3.3378      1.5735 0 0 0 0.0 0.0 0.0
     92 3      1.6689      3.8941      2.3602 0 0 0 0.0 0.0 0.0
     93 3      1.1126      3.3378      3.1469 0 0 0 0.0 0.0 0.0
     94 3      1.6689      3.8941      3.9336 0 0 0 0.0 0.0 0.0
     95 3      1.1126      3.3378      4.7204 0 0 0 0.0 0.0 0.0
     96 3      1.6689      3.8941      5.5071 0 0 0 0.0 0.0 0.0
     97 2      1.1126      4.4504      0.0000    1    4    1      1.1126      4.4504      0.0000
     98 2      1.6689      5.0067      0.7867    1    4    0      1.6689      5.0067      0.7867
     99 3      1.1126      4.4504      1.5735 0 0 0 0.0 0.0 0.0
    100 3      1.6689      5.0067      2.3602 0 0 0 0.0 0.0 0.0
    101 3      1.1126      4.4504      3.1469 0 0 0 0.0 0.0 0.0
    102 3      1.6689      5.0067      3.9336 0 0 0 0.0 0.0 0.0
    103 3      1.1126      4.4504      4.7204 0 0 0 0.0 0.0 0.0
    104 3      1.6689      5.0067      5.5071 0 0 0 0.0 0.0 0.0
    105 2      1.1126      5.5630      0.0000    1    5    1      1.1126      5.5630      0.0000
    106 2      1.6689      6.1193      0.7867    1    5    0      1.6689      6.1193      0.7867
    107 3      1.1126      5.5630      1.5735 0 0 0 0.0 0.0 0.0
    108 3      1.6689      6.1193      2.3602 0 0 0 0.0 0.0 0.0
    109 3      1.1126      5.5630      3.1469 0 0 0 0.0 0.0 0.0
    110 3      1.6689      6.1193      3.9336 0 0 0 0.0 0.0 0.0
    111 3      1.1126      5.5630      4.7204 0 0 0 0.0 0.0 0.0
    112 3      1.6689      6.1193      5.5071 0 0 0 0.0 0.0 0.0
    113 2      1.1126      6.6756      0.0000    1    6    1      1.1126      6.6756      0.0000
    114 2      1.6689      7.2319      0.7867    1    6    0      1.6689      7.2319      0.7867
    115 3      1.1126      6.6756      1.5735 0 0 0 0.0 0.0 0.0
    116 3      1.6689      7.2319      2.3602 0 0 0 0.0 0.0 0.0
    117 3      1.1126      6.6756      3.1469 0 0 0 0.0 0.0 0.0
    118 3      1.6689      7.2319      3.9336 0 0 0 0.0 0.0 0.0
    119 3      1.1126      6.6756      4.7204 0 0 0 0.0 0.0 0.0
    120 3      1.6689      7.2319      5.5071 0 0 0 0.0 0.0 0.0
    121 2      1.1126      7.7882      0.0000    1    7    1      1.1126      7.7882      0.0000
    122 2      1.6689      8.3445      0.7867    1    7    0      1.6689      8.3445      0.7867
    123 3      1.1126      7.7882      1.5735 0 0 0 0.0 0.0 0.0
    124 3      1.6689      8.3445      2.3602 0 0 0 0.0 0.0 0.0
    125 3      1.1126      7.7882      3.1469 0 0 0 0.0 0.0 0.0
    126 3      1.6689      8.3445      3.9336 0 0 0 0.0 0.0 0.0
    127 3      1.1126      7.7882      4.7204 0 0 0 0.0 0.0 0.0
    128 3      1.6689      8.3445      5.5071 0 0 0 0.0 0.0 0.0
    129 2      2.2252      0.0000      0.0000    2    0    1      2.2252      0.0000      0.0000
    130 2      2.7815      0.5563      0.7867    2    0    0      2.7815      0.5563      0.7867
    131 3      2.2252      0.0000      1.5735 0 0 0 0.0 0.0 0.0
    132 3      2.7815      0.5563      2.3602 0 0 0 0.0 0.0 0.0
    133 3      2.2252      0.0000      3.1469 0 0 0 0.0 0.0 0.0
    134 3      2.7815      0.5563      3.9336 0 0 0 0.0 0.0 0.0
    135 3      2.2252      0.0000      4.7204 0 0 0 0.0 0.0 0.0
    136 3      2.7815      0.5563      5.5071 0 0 0 0.0 0.0 0.0
    137 2      2.2252      1.1126      0.0000    2    1    1      2.2252      1.1126      0.0000
    138 2      2.7815      1.6689      0.7867    2    1    0      2.7815      1.6689      0.7867
    139 3      2.2252      1.1126      1.5735 0 0 0 0.0 0.0 0.0
    140 3      2.7815      1.6689      2.3602 0 0 0 0.0 0.0 0.0
    141 3      2.2252      1.1126      3.1469 0 0 0 0.0 0.0 0.0
    142 3      2.7815      1.6689      3.9336 0 0 0 0.0 0.0 0.0
    143 3      2.2252      1.1126      4.7204 0 0 0 0.0 0.0 0.0
    144 3      2.7815      1.6689      5.5071 0 0 0 0.0 0.0 0.0
    145 2      2.2252      2.2252      0.0000    2    2    1      2.2252      2.2252      0.0000
    146 2      2.7815      2.7815      0.7867    2    2    0      2.7815      2.7815      0.7867
    147 3      2.2252      2.2252      1.5735 0 0 0 0.0 0.0 0.0
    148 3      2.7815      2.7815      2.3602 0 0 0 0.0 0.0 0.0
    149 3      2.2252      2.2252      3.1469 0 0 0 0.0 0.0 0.0
    150 3      2.7815      2.7815      3.9336 0 0 0 0.0 0.0 0.0
    151 3      2.2252      2.2252      4.7204 0 0 0 0.0 0.0 0.0
    152 3      2.7815      2.7815      5.5071 0 0 0 0.0 0.0 0.0
    153 2      2.2252      3.3378      0.0000    2    3    1      2.2252      3.3378      0.0000
    154 2      2.7815      3.8941      0.7867    2    3    0      2.7815      3.8941      0.7867
    155 3      2.2252      3.3378      1.5735 0 0 0 0.0 0.0 0.0
    156 3      2.7815      3.8941      2.3602 0 0 0 0.0 0.0 0.0
    157 3      2.2252      3.3378      3.1469 0 0 0 0.0 0.0 0.0
    158 3      2.7815      3.8941      3.9336 0 0 0 0.0 0.0 0.0
    159 3      2.2252      3.3378      4.7204 0 0 0 0.0 0.0 0.0
    160 3      2.7815      3.8941      5.5071 0 0 0 0.0 0.0 0.0
    161 2      2.2252      4.4504      0.0000    2    4    1      2.2252      4.4504      0.0000
    162 2      2.7815      5.0067      0.7867    2    4    0      2.7815      5.0067      0.7867
    163 3      2.2252      4.4504      1.5735 0 0 0 0.0 0.0 0.0
    164 3      2.7815      5.0067      2.3602 0 0 0 0.0 0.0 0.0
    165 3      2.2252      4.4504      3.1469 0 0 0 0.0 0.0 0.0
    166 3      2.7815      5.0067      3.9336 0 0 0 0.0 0.0 0.0
    167 3      2.2252      4.4504      4.7204 0 0 0 0.0 0.0 0.0
    168 3      2.7815      5.0067      5.5071 0 0 0 0.0 0.0 0.0
    169 2      2.2252      5.5630      0.0000    2    5    1      2.2252      5.5630      0.0000
    170 2      2.7815      6.1193      0.7867    2    5    0      2.7815      6.1193      0.7867
    171 3      2.2252      5.5630      1.5735 0 0 0 0.0 0.0 0.0
    172 3      2.7815      6.1193      2.3602 0 0 0 0.0 0.0 0.0
    173 3      2.2252      5.5630      3.1469 0 0 0 0.0 0.0 0.0
    174 3      2.7815      6.1193      3.9336 0 0 0 0.0 0.0 0.0
    175 3      2.2252      5.5630      4.7204 0 0 0 0.0 0.0 0.0
    176 3      2.7815      6.1193      5.5071 0 0 0 0.0 0.0 0.0
    177 2      2.2252      6.6756      0.0000    2    6    1      2.2252      6.6756      0.0000
    178 2      2.7815      7.2319      0.7867    2    6    0      2.7815      7.2319      0.7867
    179 3      2.2252      6.6756      1.5735 0 0 0 0.0 0.0 0.0
    180 3      2.7815      7.2319      2.3602 0 0 0 0.0 0.0 0.0
    181 3      2.2252      6.6756      3.1469 0 0 0 0.0 0.0 0.0
    182 3      2.7815      7.2319      3.9336 0 0 0 0.0 0.0 0.0
    183 3      2.2252      6.6756      4.7204 0 0 0 0.0 0.0 0.0
    184 3      2.7815      7.2319      5.5071 0 0 0 0.0 0.0 0.0
    185 2      2.2252      7.7882      0.0000    2    7    1      2.2252      7.7882      0.0000
    186 2      2.7815      8.3445      0.7867    2    7    0      2.7815      8.3445      0.7867
    187 3      2.2252      7.7882      1.5735 0 0 0 0.0 0.0 0.0
    188 3      2.7815      8.3445      2.3602 0 0 0 0.0 0.0 0.0
    189 3      2.2252      7.7882      3.1469 0 0 0 0.0 0.0 0.0
    190 3      2.7815      8.3445      3.9336 0 0 0 0.0 0.0 0.0
    191 3      2.2252      7.7882      4.7204 0 0 0 0.0 0.0 0.0
    192 3      2.7815      8.3445      5.5071 0 0 0 0.0 0.0 0.0
    193 2      3.3378      0.0000      0.0000    3    0    1      3.3378      0.0000      0.0000
    194 2      3.8941      0.5563      0.7867    3    0    0      3.8941      0.5563      0.7867
    195 3      3.3378      0.0000      1.5735 0 0 0 0.0 0.0 0.0
    196 3      3.8941      0.5563      2.3602 0 0 0 0.0 0.0 0.0
    197 3      3.3378      0.0000      3.1469 0 0 0 0.0 0.0 0.0
    198 3      3.8941      0.5563      3.9336 0 0 0 0.0 0.0 0.0
    199 3      3.3378      0.0000      4.7204 0 0 0 0.0 0.0 0.0
    200 3      3.8941      0.5563      5.5071 0 0 0 0.0 0.0 0.0
    201 2      3.3378      1.1126      0.0000    3    1    1      3.3378      1.1126      0.0000
    202 2      3.8941      1.6689      0.7867    3    1    0      3.8941      1.6689      0.7867
    203 3      3.3378      1.1126      1.5735 0 0 0 0.0 0.0 0.0
    204 3      3.8941      1.6689      2.3602 0 0 0 0.0 0.0 0.0
    205 3      3.3378      1.1126      3.1469 0 0 0 0.0 0.0 0.0
    206 3      3.8941      1.6689      3.9336 0 0 0 0.0 0.0 0.0
    207 3      3.3378      1.1126      4.7204 0 0 0 0.0 0.0 0.0
    208 3      3.8941      1.6689      5.5071 0 0 0 0.0 0.0 0.0
    209 2      3.3378      2.2252      0.0000    3    2    1      3.3378      2.2252      0.0000
    210 2      3.8941      2.7815      0.7867    3    2    0      3.8941      2.7815      0.7867
    211 3      3.3378      2.2252      1.5735 0 0 0 0.0 0.0 0.0
    212 3      3.8941      2.7815      2.3602 0 0 0 0.0 0.0 0.0
    213 3      3.3378      2.2252      3.1469 0 0 0 0.0 0.0 0.0
    214 3      3.8941      2.7815      3.9336 0 0 0 0.0 0.0 0.0
    215 3      3.3378      2.2252      4.7204 0 0 0 0.0 0.0 0.0
    216 3      3.8941      2.7815      5.5071 0 0 0 0.0 0.0 0.0
    217 2      3.3378      3.3378      0.0000    3    3    1      3.3378      3.3378      0.0000
    218 2      3.8941      3.8941      0.7867    3    3    0      3.8941      3.8941      0.7867
    219 3      3.3378      3.3378      1.5735 0 0 0 0.0 0.0 0.0
    220 3      3.8941      3.8941      2.3602 0 0 0 0.0 0.0 0.0
    221 3      3.3378      3.3378      3.1469 0 0 0 0.0 0.0 0.0
    222 3      3.8941      3.8941      3.9336 0 0 0 0.0 0.0 0.0
    223 3      3.3378      3.3378      4.7204 0 0 0 0.0 0.0 0.0
    224 3      3.8941      3.8941      5.5071 0 0 0 0.0 0.0 0.0
    225 2      3.3378      4.4504      0.0000    3    4    1      3.3378      4.4504      0.0000
    226 2      3.8941      5.0067      0.7867    3    4    0      3.8941      5.0067      0.7867
    227 3      3.3378      4.4504      1.5735 0 0 0 0.0 0.0 0.0
    228 3      3.8941      5.0067      2.3602 0 0 0 0.0 0.0 0.0
    229 3      3.3378      4.4504      3.1469 0 0 0 0.0 0.0 0.0
    230 3      3.8941      5.0067      3.9336 0 0 0 0.0 0.0 0.0
    231 3      3.3378      4.4504      4.7204 0 0 0 0.0 0.0 0.0
    232 3      3.8941      5.0067      5.5071 0 0 0 0.0 0.0 0.0
    233 2      3.3378      5.5630      0.0000    3    5    1      3.3378      5.5630      0.0000
    234 2      3.8941      6.1193      0.7867    3    5    0      3.8941      6.1193      0.7867
    235 3      3.3378      5.5630      1.5735 0 0 0 0.0 0.0 0.0
    236 3      3.8941      6.1193      2.3602 0 0 0 0.0 0.0 0.0
    237 3      3.3378      5.5630      3.1469 0 0 0 0.0 0.0 0.0
    238 3      3.8941      6.1193      3.9336 0 0 0 0.0 0.0 0.0
    239 3      3.3378      5.5630      4.7204 0 0 0 0.0 0.0 0.0
    240 3      3.8941      6.1193      5.5071 0 0 0 0.0 0.0 0.0
    241 2      3.3378      6.6756      0.0000    3    6    1      3.3378      6.6756      0.0000
    242 2      3.8941      7.2319      0.7867    3    6    0      3.8941      7.2319      0.7867
    243 3      3.3378      6.6756      1.5735 0 0 0 0.0 0.0 0.0
    244 3      3.8941      7.2319      2.3602 0 0 0 0.0 0.0 0.0
    245 3      3.3378      6.6756      3.1469 0 0 0 0.0 0.0 0.0
    246 3      3.8941      7.2319      3.9336 0 0 0 0.0 0.0 0.0
    247 3      3.3378      6.6756      4.7204 0 0 0 0.0 0.0 0.0
    248 3      3.8941      7.2319      5.5071 0 0 0 0.0 0.0 0.0
    249 2      3.3378      7.7882      0.0000    3    7    1      3.3378      7.7882      0.0000
    250 2      3.8941      8.3445      0.7867    3    7    0      3.8941      8.3445      0.7867
    251 3      3.3378      7.7882      1.5735 0 0 0 0.0 0.0 0.0
    252 3      3.8941      8.3445      2.3602 0 0 0 0.0 0.0 0.0
    253 3      3.3378      7.7882      3.1469 0 0 0 0.0 0.0 0.0
    254 3      3.8941      8.3445      3.9336 0 0 0 0.0 0.0 0.0
    255 3      3.3378      7.7882      4.7204 0 0 0 0.0 0.0 0.0
    256 3      3.8941      8.3445      5.5071 0 0 0 0.0 0.0 0.0
    257 2      4.4504      0.0000      0.0000    4    0    1      4.4504      0.0000      0.0000
    258 2      5.0067      0.5563      0.7867    4    0    0      5.0067      0.5563      0.7867
    259 3      4.4504      0.0000      1.5735 0 0 0 0.0 0.0 0.0
    260 3      5.0067      0.5563      2.3602 0 0 0 0.0 0.0 0.0
    261 3      4.4504      0.0000      3.1469 0 0 0 0.0 0.0 0.0
    262 3      5.0067      0.5563      3.9336 0 0 0 0.0 0.0 0.0
    263 3      4.4504      0.0000      4.7204 0 0 0 0.0 0.0 0.0
    264 3      5.0067      0.5563      5.5071 0 0 0 0.0 0.0 0.0
    265 2      4.4504      1.1126      0.0000    4    1    1      4.4504      1.1126      0.0000
    266 2      5.0067      1.6689      0.7867    4    1    0      5.0067      1.6689      0.7867
    267 3      4.4504      1.1126      1.5735 0 0 0 0.0 0.0 0.0
    268 3      5.0067      1.6689      2.3602 0 0 0 0.0 0.0 0.0
    269 3      4.4504      1.1126      3.1469 0 0 0 0.0 0.0 0.0
    270 3      5.0067      1.6689      3.9336 0 0 0 0.0 0.0 0.0
    271 3      4.4504      1.1126      4.7204 0 0 0 0.0 0.0 0.0
    272 3      5.0067      1.6689      5.5071 0 0 0 0.0 0.0 0.0
    273 2      4.4504      2.2252      0.0000    4    2    1      4.4504      2.2252      0.0000
    274 2      5.0067      2.7815      0.7867    4    2    0      5.0067      2.7815      0.7867
    275 3      4.4504      2.2252      1.5735 0 0 0 0.0 0.0 0.0
    276 3      5.0067      2.7815      2.3602 0 0 0 0.0 0.0 0.0
    277 3      4.4504      2.2252      3.1469 0 0 0 0.0 0.0 0.0
    278 3      5.0067      2.7815      3.9336 0 0 0 0.0 0.0 0.0
    279 3      4.4504      2.2252      4.7204 0 0 0 0.0 0.0 0.0
    280 3      5.0067      2.7815      5.5071 0 0 0 0.0 0.0 0.0
    281 2      4.4504      3.3378      0.0000    4    3    1      4.4504      3.3378      0.0000
    282 2      5.0067      3.8941      0.7867    4    3    0      5.0067      3.8941      0.7867
    283 3      4.4504      3.3378      1.5735 0 0 0 0.0 0.0 0.0
    284 3      5.0067      3.8941      2.3602 0 0 0 0.0 0.0 0.0
    285 3      4.4504      3.3378      3.1469 0 0 0 0.0 0.0 0.0
    286 3      5.0067      3.8941      3.9336 0 0 0 0.0 0.0 0.0
    287 3      4.4504      3.3378      4.7204 0 0 0 0.0 0.0 0.0
    288 3      5.0067      3.8941      5.5071 0 0 0 0.0 0.0 0.0
    289 2      4.4504      4.4504      0.0000    4    4    1      4.4504      4.4504      0.0000
    290 2      5.0067      5.0067      0.7867    4    4    0      5.0067      5.0067      0.7867
    291 3      4.4504      4.4504      1.5735 0 0 0 0.0 0.0 0.0
    292 3      5.0067      5.0067      2.3602 0 0 0 0.0 0.0 0.0
    293 3      4.4504      4.4504      3.1469 0 0 0 0.0 0.0 0.0
    294 3      5.0067      5.0067      3.9336 0 0 0 0.0 0.0 0.0
    295 3      4.4504      4.4504      4.7204 0 0 0 0.0 0.0 0.0
    296 3      5.0067      5.0067      5.5071 0 0 0 0.0 0.0 0.0
    297 2      4.4504      5.5630      0.0000    4    5    1      4.4504      5.5630      0.0000
    298 2      5.0067      6.1193      0.7867    4    5    0      5.0067      6.1193      0.7867
    299 3      4.4504      5.5630      1.5735 0 0 0 0.0 0.0 0.0
    300 3      5.0067      6.1193      2.3602 0 0 0 0.0 0.0 0.0
    301 3      4.4504      5.5630      3.1469 0 0 0 0.0 0.0 0.0
    302 3      5.0067      6.1193      3.9336 0 0 0 0.0 0.0 0.0
    303 3      4.4504      5.5630      4.7204 0 0 0 0.0 0.0 0.0
    304 3      5.0067      6.1193      5.5071 0 0 0 0.0 0.0 0.0
    305 2      4.4504      6.6756      0.0000    4    6    1      4.4504      6.6756      0.0000
    306 2      5.0067      7.2319      0.7867    4    6    0      5.0067      7.2319      0.7867
    307 3      4.4504      6.6756      1.5735 0 0 0 0.0 0.0 0.0
    308 3      5.0067      7.2319      2.3602 0 0 0 0.0 0.0 0.0
    309 3      4.4504      6.6756      3.1469 0 0 0 0.0 0.0 0.0
    310 3      5.0067      7.2319      3.9336 0 0 0 0.0 0.0 0.0
    311 3      4.4504      6.6756      4.7204 0 0 0 0.0 0.0 0.0
    312 3      5.0067      7.2319      5.5071 0 0 0 0.0 0.0 0.0
    313 2      4.4504      7.7882      0.0000    4    7    1      4.4504      7.7882      0.0000
    314 2      5.0067      8.3445      0.7867    4    7    0      5.0067      8.3445      0.7867
    315 3      4.4504      7.7882      1.5735 0 0 0 0.0 0.0 0.0
    316 3      5.0067      8.3445      2.3602 0 0 0 0.0 0.0 0.0
    317 3      4.4504      7.7882      3.1469 0 0 0 0.0 0.0 0.0
    318 3      5.0067      8.3445      3.9336 0 0 0 0.0 0.0 0.0
    319 3      4.4504      7.7882      4.7204 0 0 0 0.0 0.0 0.0
    320 3      5.0067      8.3445      5.5071 0 0 0 0.0 0.0 0.0
    321 2      5.5630      0.0000      0.0000    5    0    1      5.5630      0.0000      0.0000
    322 2      6.1193      0.5563      0.7867    5    0    0      6.1193      0.5563      0.7867
    323 3      5.5630      0.0000      1.5735 0 0 0 0.0 0.0 0.0
    324 3      6.1193      0.5563      2.3602 0 0 0 0.0 0.0 0.0
    325 3      5.5630      0.0000      3.1469 0 0 0 0.0 0.0 0.0
    326 3      6.1193      0.5563      3.9336 0 0 0 0.0 0.0 0.0
    327 3      5.5630      0.0000      4.7204 0 0 0 0.0 0.0 0.0
    328 3      6.1193      0.5563      5.5071 0 0 0 0.0 0.0 0.0
    329 2      5.5630      1.1126      0.0000    5    1    1      5.5630      1.1126      0.0000
    330 2      6.1193      1.6689      0.7867    5    1    0      6.1193      1.6689      0.7867
    331 3      5.5630      1.1126      1.5735 0 0 0 0.0 0.0 0.0
    332 3      6.1193      1.6689      2.3602 0 0 0 0.0 0.0 0.0
    333 3      5.5630      1.1126      3.1469 0 0 0 0.0 0.0 0.0
    334 3      6.1193      1.6689      3.9336 0 0 0 0.0 0.0 0.0
    335 3      5.5630      1.1126      4.7204 0 0 0 0.0 0.0 0.0
    336 3      6.1193      1.6689      5.5071 0 0 0 0.0 0.0 0.0
    337 2      5.5630      2.2252      0.0000    5    2    1      5.5630      2.2252      0.0000
    338 2      6.1193      2.7815      0.7867    5    2    0      6.1193      2.7815      0.7867
    339 3      5.5630      2.2252      1.5735 0 0 0 0.0 0.0 0.0
    340 3      6.1193      2.7815      2.3602 0 0 0 0.0 0.0 0.0
    341 3      5.5630      2.2252      3.1469 0 0 0 0.0 0.0 0.0
    342 3      6.1193      2.7815      3.9336 0 0 0 0.0 0.0 0.0
    343 3      5.5630      2.2252      4.7204 0 0 0 0.0 0.0 0.0
    344 3      6.1193      2.7815      5.5071 0 0 0 0.0 0.0 0.0
    345 2      5.5630      3.3378      0.0000    5    3    1      5.5630      3.3378      0.0000
    346 2      6.1193      3.8941      0.7867    5    3    0      6.1193      3.8941      0.7867
    347 3      5.5630      3.3378      1.5735 0 0 0 0.0 0.0 0.0
    348 3      6.1193      3.8941      2.3602 0 0 0 0.0 0.0 0.0
    349 3      5.5630      3.3378      3.1469 0 0 0 0.0 0.0 0.0
    350 3      6.1193      3.8941      3.9336 0 0 0 0.0 0.0 0.0
    351 3      5.5630      3.3378      4.7204 0 0 0 0.0 0.0 0.0
    352 3      6.1193      3.8941      5.5071 0 0 0 0.0 0.0 0.0
    353 2      5.5630      4.4504      0.0000    5    4    1      5.5630      4.4504      0.0000
    354 2      6.1193      5.0067      0.7867    5    4    0      6.1193      5.0067      0.7867
    355 3      5.5630      4.4504      1.5735 0 0 0 0.0 0.0 0.0
    356 3      6.1193      5.0067      2.3602 0 0 0 0.0 0.0 0.0
    357 3      5.5630      4.4504      3.1469 0 0 0 0.0 0.0 0.0
    358 3      6.1193      5.0067      3.9336 0 0 0 0.0 0.0 0.0
    359 3      5.5630      4.4504      4.7204 0 0 0 0.0 0.0 0.0
    360 3      6.1193      5.0067      5.5071 0 0 0 0.0 0.0 0.0
    361 2      5.5630      5.5630      0.0000    5    5    1      5.5630      5.5630      0.0000
    362 2      6.1193      6.1193      0.7867    5    5    0      6.1193      6.1193      0.7867
    363 3      5.5630      5.5630      1.5735 0 0 0 0.0 0.0 0.0
    364 3      6.1193      6.1193      2.3602 0 0 0 0.0 0.0 0.0
    365 3      5.5630      5.5630      3.1469 0 0 0 0.0 0.0 0.0
    366 3      6.1193      6.1193      3.9336 0 0 0 0.0 0.0 0.0
    367 3      5.5630      5.5630      4.7204 0 0 0 0.0 0.0 0.0
    368 3      6.1193      6.1193      5.5071 0 0 0 0.0 0.0 0.0
    369 2      5.5630      6.6756      0.0000    5    6    1      5.5630      6.6756      0.0000
    370 2      6.1193      7.2319      0.7867    5    6    0      6.1193      7.2319      0.7867
    371 3      5.5630      6.6756      1.5735 0 0 0 0.0 0.0 0.0
    372 3      6.1193      7.2319      2.3602 0 0 0 0.0 0.0 0.0
    373 3      5.5630      6.6756      3.1469 0 0 0 0.0 0.0 0.0
    374 3      6.1193      7.2319      3.9336 0 0 0 0.0 0.0 0.0
    375 3      5.5630      6.6756      4.7204 0 0 0 0.0 0.0 0.0
    376 3      6.1193      7.2319      5.5071 0 0 0 0.0 0.0 0.0
    377 2      5.5630      7.7882      0.0000    5    7    1      5.5630      7.7882      0.0000
    378 2      6.1193      8.3445      0.7867    5    7    0      6.1193      8.3445      0.7867
    379 3      5.5630      7.7882      1.5735 0 0 0 0.0 0.0 0.0
    380 3      6.1193      8.3445      2.3602 0 0 0 0.0 0.0 0.0
    381 3      5.5630      7.7882      3.1469 0 0 0 0.0 0.0 0.0
    382 3      6.1193      8.3445      3.9336 0 0 0 0.0 0.0 0.0
    383 3      5.5630      7.7882      4.7204 0 0 0 0.0 0.0 0.0
    384 3      6.1193      8.3445      5.5071 0 0 0 0.0 0.0 0.0
    385 2      6.6756      0.0000      0.0000    6    0    1      6.6756      0.0000      0.0000
    386 2      7.2319      0.5563      0.7867    6    0    0      7.2319      0.5563      0.7867
    387 3      6.6756      0.0000      1.5735 0 0 0 0.0 0.0 0.0
    388 3      7.2319      0.5563      2.3602 0 0 0 0.0 0.0 0.0
    389 3      6.6756      0.0000      3.1469 0 0 0 0.0 0.0 0.0
    390 3      7.2319      0.5563      3.9336 0 0 0 0.0 0.0 0.0
    391 3      6.6756      0.0000      4.7204 0 0 0 0.0 0.0 0.0
    392 3      7.2319      0.5563      5.5071 0 0 0 0.0 0.0 0.0
    393 2      6.6756      1.1126      0.0000    6    1    1      6.6756      1.1126      0.0000
    394 2      7.2319      1.6689      0.7867    6    1    0      7.2319      1.6689      0.7867
    395 3      6.6756      1.1126      1.5735 0 0 0 0.0 0.0 0.0
    396 3      7.2319      1.6689      2.3602 0 0 0 0.0 0.0 0.0
    397 3      6.6756      1.1126      3.1469 0 0 0 0.0 0.0 0.0
    398 3      7.2319      1.6689      3.9336 0 0 0 0.0 0.0 0.0
    399 3      6.6756      1.1126      4.7204 0 0 0 0.0 0.0 0.0
    400 3      7.2319      1.6689      5.5071 0 0 0 0.0 0.0 0.0
    401 2      6.6756      2.2252      0.0000    6    2    1      6.6756      2.2252      0.0000
    402 2      7.2319      2.7815      0.7867    6    2    0      7.2319      2.7815      0.7867
    403 3      6.6756      2.2252      1.5735 0 0 0 0.0 0.0 0.0
    404 3      7.2319      2.7815      2.3602 0 0 0 0.0 0.0 0.0
    405 3      6.6756      2.2252      3.1469 0 0 0 0.0 0.0 0.0
    406 3      7.2319      2.7815      3.9336 0 0 0 0.0 0.0 0.0
    407 3      6.6756      2.2252      4.7204 0 0 0 0.0 0.0 0.0
    408 3      7.2319      2.7815      5.5071 0 0 0 0.0 0.0 0.0
    409 2      6.6756      3.3378      0.0000    6    3    1      6.6756      3.3378      0.0000
    410 2      7.2319      3.8941      0.7867    6    3    0      7.2319      3.8941      0.7867
    411 3      6.6756      3.3378      1.5735 0 0 0 0.0 0.0 0.0
    412 3      7.2319      3.8941      2.3602 0 0 0 0.0 0.0 0.0