LAMMPS (7 Jul 2009)
# GFMD for 2+1 D Cu block simulation
boundary     p p m
units		    metal
atom_style   atomic

# read in initial geometry
read_data    data.pos
  orthogonal box = (0 0 -10) to (79.6941 81.7981 1)
  1 by 1 by 1 processor grid
  1152 atoms

# define group
group        GFLayer type 1
1152 atoms in group GFLayer

# No potential is necessary here
pair_style   none

# Atomic property
mass         1 63.55

# Set variables for Langevin thermostat
variable     r equal 471081
variable     t equal 0.
variable     d equal 0.15
# 
neighbor     2.0 nsq 

# Apply Green's function method on gfmdlayer
fix          1 GFLayer gfmd EAMCu 2 GFC.bin su 4.42745271 0.0 sv 0 2.55619101 load -0.01 output 10000

fix          2 GFLayer langevin $t $t $d $r
fix          2 GFLayer langevin 0 $t $d $r
fix          2 GFLayer langevin 0 0 $d $r
fix          2 GFLayer langevin 0 0 0.15 $r
fix          2 GFLayer langevin 0 0 0.15 471081
fix          3 GFLayer nve

# Add indenter
fix          4 GFLayer indent 1e4 cylinder y 39.8 -499.999 500 units box
fix_modify   4 energy yes

# Thermo output
thermo       30
thermo_style custom step temp ke pe f_4 etotal pxx pyy pzz pxy pxz pyz

# Dump trajectory to visualize 
dump         4 GFLayer atom 100 dump3D.lammpstrj

# 3000 should be enough to equilibrate
run          3000
Memory usage per processor = 1.69155 Mbytes
Step Temp KinEng PotEng 4 TotEng Pxx Pyy Pzz Pxy Pxz Pyz 
       0            0            0 0.00010595912 0.00010595912 0.00010595912            0            0            0            0            0            0 
      30  0.041132199 0.0061195838 0.0001066599 0.0001066599 0.0062262437 3.3771025e-07 3.3065378e-10   0.27346346 1.3730525e-09 3.7672107e-05 1.2429684e-07 
      60   0.13737721  0.020438765 0.00015739944 0.00015739944  0.020596165 1.159411e-05 1.427907e-08   0.91332866 5.6285574e-08 0.00036972019 1.437737e-06 
      90     0.254956  0.037931952 0.00042041766 0.00042041766   0.03835237 6.1543898e-05 1.0337635e-07    1.6949908 3.5974781e-07 0.0010887313 4.9061698e-06 
     120    0.3632491  0.054043629 0.0021099106 0.0021099106   0.05615354 0.00017221919 3.1471127e-07    2.4148571 9.7576033e-07 0.0015893501 5.9737236e-06 
     150   0.46831272  0.069674829 0.00034419669 0.00034419669  0.070019026 0.00055158508 4.8296965e-07    3.1129837 -2.5245268e-06 0.0072010273 -4.2709868e-05 
     180   0.55425372  0.082460997 0.0003278117 0.0003278117  0.082788808 0.0015092387 8.5055567e-07    3.6833969 -1.2831846e-05  0.006832478 -7.0325535e-05 
     210   0.62406332  0.092847159 0.0025977396 0.0025977396  0.095444899 0.0022847101 1.2169908e-06     4.146744 -1.9665265e-05 0.0084006085 -0.00012808069 
     240   0.66969659  0.099636406 0.0029220031 0.0029220031   0.10255841 0.0036327289 1.2604598e-06    4.4487848 -2.6174273e-05  0.015281531 -0.00025370815 
     270   0.70631065   0.10508379 0.0007179473 0.0007179473   0.10580173 0.0054715913 1.2987915e-06    4.6903712 -3.358172e-05    0.0233998 -0.00020199642 
     300   0.71618255   0.10655251 0.0026393971 0.0026393971   0.10919191 0.0076302727 2.3738942e-06    4.7538439 -2.7368044e-05    0.0238483 -0.00017348489 
     330   0.72655654   0.10809594 0.0016756006 0.0016756006   0.10977154 0.0098995673 4.2869014e-06    4.8205432 -1.3839545e-05  0.026165215 -0.00019368539 
     360   0.71491404   0.10636379 0.0035187991 0.0035187991   0.10988259  0.012346783 4.4989401e-06    4.7406917 -1.3004198e-05  0.025417513 -1.6571371e-05 
     390   0.70289356    0.1045754 0.0034114831 0.0034114831   0.10798688  0.014755764 3.6604513e-06    4.6583664 -1.7473937e-05  0.034450305 3.2115245e-05 
     420   0.68129657   0.10136223 0.0017753576 0.0017753576   0.10313759  0.017091654 2.833393e-06    4.5124457 -8.4298501e-06  0.035900809 -2.2026619e-05 
     450   0.65424918  0.097338164 0.0041821802 0.0041821802   0.10152034  0.019342059 1.9214048e-06     4.330374 8.5189454e-06  0.033033542 0.00012973355 
     480    0.6249579  0.092980253 0.0039871237 0.0039871237  0.096967377  0.021370298 1.4984495e-06    4.1336057 2.7858158e-05  0.041959106 0.00015770058 
     510   0.58904675  0.087637449 0.0027966446 0.0027966446  0.090434093  0.023258149 1.4046844e-06    3.8929658 4.6194525e-05  0.038248401 0.00023347611 
     540   0.55332352  0.082322603 0.0051568078 0.0051568078  0.087479411  0.024923054 1.5847201e-06     3.653798 6.2290174e-05  0.042542792 0.0002136447 
     570   0.51561309  0.076712105 0.0035825946 0.0035825946    0.0802947  0.026136464 1.8562289e-06    3.4018699 7.6246944e-05   0.04774436 0.00028227775 
     600   0.47888369  0.071247562  0.003505963  0.003505963  0.074753525  0.026880278 1.7988282e-06    3.1569339 8.8626725e-05  0.038329478 0.00033566878 
     630   0.44058213  0.065549116 0.0062542574 0.0062542574  0.071803373  0.027394186 1.5615102e-06    2.9017757 0.00010159198  0.040288202 0.00032382645 
     660   0.40451133   0.06018256 0.0035634288 0.0035634288  0.063745989  0.027478998 1.3030059e-06    2.6618776 0.00011215005  0.044891993 0.00039558776 
     690    0.3702802  0.055089706 0.0046656031 0.0046656031  0.059755309  0.027096692 1.1504734e-06    2.4346774 0.00011912999  0.035869414 0.00035645194 
     720   0.33663425  0.050083913 0.0062024604 0.0062024604  0.056286374  0.026464019 1.0802762e-06     2.211618 0.00012404268  0.036480306 0.00040945873 
     750   0.30514034  0.045398299 0.0041058942 0.0041058942  0.049504194  0.025579937 1.0734954e-06    2.0031176 0.00012712627  0.036684145 0.00042012376 
     780    0.2758869  0.041046019 0.0058605805 0.0058605805  0.046906599  0.024301635 1.064494e-06     1.809907 0.00012760688   0.03076365 0.00038276333 
     810   0.24872099  0.037004317 0.0058214753 0.0058214753  0.042825793  0.022863513 1.0382886e-06     1.630735 0.00012633363  0.029758068 0.00041732976 
     840   0.22347307  0.033247972 0.0050945183 0.0050945183  0.038342491  0.021298646 1.0189296e-06    1.4644414 0.00012408895  0.027192462 0.00038855861 
     870   0.20009925  0.029770451 0.0064470733 0.0064470733  0.036217525  0.019510184 1.0178605e-06     1.310831 0.00012003928  0.024254653 0.0003720095 
     900   0.17887652  0.026612967 0.0057668836 0.0057668836  0.032379851  0.017684277 1.032301e-06    1.1715594 0.0001154276  0.021704963 0.00036499609 
     930   0.15967776  0.023756607 0.0061858496 0.0061858496  0.029942456  0.015851536 1.0500417e-06    1.0457509 0.00011002088  0.019442269 0.00033246231 
     960   0.14213757  0.021147004 0.0064807037 0.0064807037  0.027627707  0.013982964 1.0695715e-06   0.93100504 0.00010336385  0.017485029 0.00032182263 
     990   0.12608507  0.018758739 0.0062319591 0.0062319591  0.024990698  0.012229743 1.0625056e-06   0.82603469 9.603852e-05  0.014480606 0.00029365016 
    1020   0.11126991  0.016554562 0.0069599102 0.0069599102  0.023514473  0.010625055 1.0499489e-06   0.72914209   8.8491e-05  0.012845614 0.00028161224 
    1050  0.098207204  0.014611113 0.0065412287 0.0065412287  0.021152342 0.0091759666 1.0357584e-06   0.64374493 8.1027691e-05  0.012017068 0.00027799819 
    1080  0.086171413  0.012820447 0.0068028734 0.0068028734  0.019623321 0.0079054913 1.0404568e-06   0.56499651 7.3807744e-05  0.010910898 0.00024535564 
    1110  0.075366223  0.011212868 0.0069001228 0.0069001228  0.018112991 0.0067482537 1.0560731e-06   0.49431638 6.701403e-05 0.0098144134 0.00022875757 
    1140  0.065757068 0.0097832331 0.0068222575 0.0068222575  0.016605491 0.0057587811 1.0048186e-06   0.43142028 6.015314e-05 0.0072383345 0.00020605981 
    1170  0.057166365 0.0085051219 0.0074062893 0.0074062893  0.015911411 0.0049705629 9.0733681e-07   0.37509407 5.3570031e-05 0.0065431123 0.00019096647 
    1200  0.049607548 0.0073805329  0.006909066  0.006909066  0.014289599 0.0042647348 8.3252867e-07   0.32554584 4.760086e-05 0.0066700602 0.00018583586 
    1230  0.042882401 0.0063799761 0.0071622814 0.0071622814  0.013542258 0.0036611587 7.8061749e-07   0.28143792 4.2267978e-05 0.0051954593 0.00015612703 
    1260  0.036981054  0.005501983 0.0074372562 0.0074372562  0.012939239  0.003136554 7.2833704e-07   0.24272799 3.7500954e-05 0.0044275737 0.00014603011 
    1290   0.03179971 0.0047311109 0.0071865881 0.0071865881  0.011917699 0.0027036133 6.6938494e-07   0.20871329 3.3391514e-05  0.003722979 0.00012879383 
    1320  0.027299082 0.0040615144 0.0075401539 0.0075401539  0.011601668   0.00232663 6.1012846e-07    0.1791683 2.9755819e-05 0.0035060947 0.00011819832 
    1350  0.023372082 0.0034772617 0.0073083996 0.0073083996  0.010785661 0.0019858303 5.5552558e-07   0.15340084 2.6363032e-05 0.0030979609 0.00010919681 
    1380  0.019963043 0.0029700702 0.0075158003 0.0075158003   0.01048587 0.0016978411 5.0274375e-07   0.13102419 2.3251568e-05 0.0021796953 8.8495017e-05 
    1410  0.016998513  0.002529012  0.007702508  0.007702508   0.01023152 0.0014620459 4.5289308e-07   0.11155062 2.063055e-05 0.0021354088 8.455432e-05 
    1440   0.01446219 0.0021516619 0.0073842595 0.0073842595 0.0095359214 0.0012515759 4.1274241e-07  0.094898606 1.8251727e-05 0.0019853404 7.4242488e-05 
    1470  0.012271185 0.0018256876 0.0077450675 0.0077450675 0.0095707551 0.0010683269 3.7473748e-07   0.08051519 1.5984464e-05 0.0014355224 6.0887473e-05 
    1500  0.010401574 0.0015475298 0.0076908006 0.0076908006 0.0092383304 0.00092124574 3.3070697e-07  0.068232371 1.3995259e-05 0.0012651542 5.6796101e-05 
    1530 0.0087895699 0.0013076984 0.0076326808 0.0076326808 0.0089403792  0.000794514 2.8326369e-07  0.057641883 1.2265049e-05 0.0011548974 4.7729829e-05 
    1560 0.0074195675 0.0011038716 0.0078160621 0.0078160621 0.0089199337 0.0006836571 2.377669e-07  0.048644445 1.0648134e-05 0.00097094082 4.1118551e-05 
    1590 0.0062541121 0.00093047696 0.0077044446 0.0077044446 0.0086349216 0.00058884164 1.9885024e-07  0.040990872 9.1789986e-06 0.00077372151 3.4820332e-05 
    1620 0.0052588853 0.00078240868 0.0078570316 0.0078570316 0.0086394403 0.00050928612 1.6999193e-07  0.034453779 7.9218182e-06 0.00064866658 2.9197968e-05 
    1650 0.0044207881 0.00065771791 0.0078129578 0.0078129578 0.0084706757 0.00043839206 1.4887188e-07  0.028952679 6.8172615e-06 0.0006257189 2.6395108e-05 
    1680 0.0037030658 0.0005509363 0.0078024328 0.0078024328 0.0083533691 0.00037456383 1.298494e-07  0.024244813 5.8067967e-06 0.00047593598 2.1013135e-05 
    1710 0.0031020079 0.00046151186 0.0079513496 0.0079513496 0.0084128614 0.00031945407 1.101438e-07  0.020303862 4.9235472e-06 0.0003785515 1.7732908e-05 
    1740 0.0025911602 0.00038550874 0.0078399374 0.0078399374 0.0082254461 0.00027147832 9.1704937e-08   0.01695553 4.1672666e-06 0.00037394704 1.5875203e-05 
    1770 0.0021617762 0.00032162567 0.0079133252 0.0079133252 0.0082349508 0.00022790524 7.6730097e-08  0.014144397 3.4926195e-06 0.00029134387 1.2631753e-05 
    1800 0.0018025128 0.00026817503 0.0079569877 0.0079569877 0.0082251628 0.00019080906 6.5259154e-08  0.011792973 2.913492e-06 0.00022245509 1.0726211e-05 
    1830 0.0014976103 0.0002228121 0.0079141938 0.0079141938 0.0081370059 0.00015980652 5.6171781e-08  0.009796867 2.4317278e-06 0.00020444583 8.9914409e-06 
    1860 0.0012453145 0.00018527594 0.0079752227 0.0079752227 0.0081604986 0.00013280562 4.8424599e-08 0.0081465098 2.0128679e-06 0.00017416556 7.436922e-06 
    1890 0.0010323707 0.00015359449 0.0079577702 0.0079577702 0.0081113647 0.00010981051 4.0797121e-08 0.0067537741 1.6568997e-06 0.00013183686 6.1591933e-06 
    1920 0.00085570418 0.00012731032 0.0079889725 0.0079889725 0.0081162828 9.0795268e-05 3.3214028e-08 0.0055982453 1.3649125e-06 0.00010853609 5.0059401e-06 
    1950 0.00070850892 0.00010541084  0.007995388  0.007995388 0.0081007988 7.4628093e-05 2.6621226e-08 0.0046358044 1.1203334e-06 9.9509584e-05 4.2617429e-06 
    1980 0.00058465583 8.6984175e-05 0.0079854522 0.0079854522 0.0080724364 6.0788972e-05 2.1264063e-08 0.0038262225 9.0987625e-07 7.6959248e-05 3.4226645e-06 
    2010 0.0004830969 7.1874397e-05 0.0080288802 0.0080288802 0.0081007546 4.930077e-05 1.7194822e-08 0.0031625092 7.3365663e-07 5.764032e-05 2.7885004e-06 
    2040 0.0003977539  5.91772e-05 0.0080095311 0.0080095311 0.0080687083 3.9871771e-05 1.4089476e-08 0.0026045459 5.9240909e-07 5.3064749e-05 2.3603717e-06 
    2070 0.00032743567 4.8715364e-05  0.008021823  0.008021823 0.0080705384  3.19057e-05 1.1490237e-08   0.00214501 4.7628248e-07 4.3645834e-05 1.9090856e-06 
    2100 0.00026912355 4.0039778e-05  0.008040124  0.008040124 0.0080801638 2.5378563e-05 9.1173411e-09 0.0017638565 3.8089039e-07 3.0494383e-05 1.5090413e-06 
    2130 0.00022050914 3.2807003e-05 0.0080323354 0.0080323354 0.0080651424 2.0212326e-05 7.096954e-09 0.0014458161 3.0563395e-07 2.659513e-05 1.2413623e-06 
    2160 0.00018100338 2.6929398e-05 0.0080458219 0.0080458219 0.0080727513 1.6025913e-05 5.5955945e-09 0.0011873535 2.4350741e-07 2.3614704e-05 1.0247878e-06 
    2190 0.00014798344 2.2016744e-05 0.0080459203 0.0080459203  0.008067937 1.2652228e-05 4.5980977e-09 0.00097119803 1.9333627e-07 1.6313176e-05 7.9781552e-07 
    2220 0.00012101461 1.8004363e-05 0.0080552572 0.0080552572 0.0080732616 1.005583e-05 3.869283e-09 0.00079449523 1.5470677e-07 1.3148914e-05 6.3857986e-07 
    2250 9.8844186e-05 1.4705883e-05 0.0080567098 0.0080567098 0.0080714157 8.0283845e-06 3.2411121e-09 0.00064912523 1.2421204e-07 1.2190945e-05 5.3139684e-07 
    2280 8.0493909e-05 1.1975757e-05 0.0080570469 0.0080570469 0.0080690227 6.4155862e-06 2.6024862e-09 0.00052873846  9.92522e-08 8.8443971e-06 4.1912125e-07 
    2310 6.5670434e-05 9.7703438e-06 0.0080687717 0.0080687717  0.008078542 5.1708143e-06 1.984973e-09 0.00043143129 7.9287727e-08 6.8022245e-06 3.3734723e-07 
    2340 5.332938e-05 7.9342612e-06 0.0080640093 0.0080640093 0.0080719436 4.2054826e-06 1.4842803e-09 0.00035034871 6.3368658e-08 6.1422625e-06 2.757203e-07 
    2370 4.3323571e-05 6.4456127e-06 0.0080696007 0.0080696007 0.0080760463    3.427e-06 1.1215285e-09 0.00028460482 5.0272892e-08 4.9523024e-06 2.1588933e-07 
    2400 3.5151347e-05 5.2297621e-06 0.0080738579 0.0080738579 0.0080790877 2.8054388e-06 8.7295654e-10 0.00023089432 3.9687348e-08 3.6612748e-06 1.7271806e-07 
    2430 2.841359e-05 4.2273293e-06 0.0080725727 0.0080725727    0.0080768 2.3152644e-06 6.8365537e-10 0.0001865893 3.1549966e-08 3.0695181e-06 1.3457683e-07 
    2460 2.3015032e-05 3.4241402e-06 0.0080778411 0.0080778411 0.0080812652 1.919212e-06 5.224645e-10 0.00015109368 2.5023939e-08 2.807591e-06 1.1101211e-07 
    2490 1.8557007e-05 2.7608823e-06   0.00807674   0.00807674 0.0080795009 1.5908791e-06 3.865984e-10 0.00012178336 1.9839338e-08 2.0290018e-06 8.4728938e-08 
    2520 1.4974183e-05 2.2278353e-06 0.0080805695 0.0080805695 0.0080827973 1.3268772e-06 2.9358866e-10 9.8227362e-05 1.5899635e-08 1.5576071e-06 6.5519858e-08 
    2550 1.2069582e-05 1.7956935e-06 0.0080814531 0.0080814531 0.0080832488 1.1128239e-06 2.4488419e-10 7.9130485e-05 1.2821317e-08 1.5526303e-06 5.5822505e-08 
    2580 9.6867631e-06 1.4411814e-06 0.0080807808 0.0080807808  0.008082222 9.2878052e-07 2.201386e-10 6.3472589e-05 1.0295919e-08 1.1082516e-06 4.3054367e-08 
    2610 7.7965656e-06 1.1599608e-06 0.0080853393 0.0080853393 0.0080864993 7.7535982e-07 1.9075135e-10 5.1059229e-05 8.2550948e-09 8.0908258e-07 3.3932384e-08 
    2640 6.2433605e-06 9.2887735e-07 0.0080834261 0.0080834261  0.008084355 6.4816141e-07 1.4817152e-10 4.0860122e-05 6.6122356e-09 7.9654805e-07 2.7877656e-08 
    2670 4.9996024e-06 7.4383298e-07 0.0080851879 0.0080851879 0.0080859317 5.3666095e-07 1.0191423e-10 3.2702653e-05 5.222396e-09 5.866178e-07 2.1734541e-08 
    2700 3.9981236e-06 5.9483454e-07 0.0080870516 0.0080870516 0.0080876464 4.4144017e-07 6.796452e-11 2.6139664e-05 4.1149717e-09 4.2118635e-07 1.7423887e-08 
    2730 3.181765e-06 4.7337799e-07 0.0080857727 0.0080857727  0.008086246 3.6172591e-07 5.1118207e-11 2.0791907e-05 3.2638731e-09 3.5701029e-07 1.3957163e-08 
    2760 2.5415487e-06 3.7812762e-07 0.0080882285 0.0080882285 0.0080886067 2.9362563e-07 4.507133e-11 1.6603592e-05 2.5765406e-09 2.9669955e-07 1.1208939e-08 
    2790 2.0181778e-06 3.0026131e-07 0.0080876957 0.0080876957 0.0080879959 2.3585568e-07 4.035732e-11 1.3181781e-05 2.0288847e-09  2.08204e-07 9.0944436e-09 
    2820 1.6019971e-06 2.383426e-07 0.0080883446 0.0080883446 0.0080885829 1.8790484e-07 3.2971153e-11 1.0462798e-05 1.6060244e-09 1.4049091e-07 7.1777688e-09 
    2850 1.2709743e-06 1.8909355e-07 0.0080895434 0.0080895434 0.0080897325 1.4877184e-07 2.4190348e-11 8.3011642e-06 1.2732999e-09 1.3497528e-07 6.0847643e-09 
    2880 1.0026697e-06 1.4917563e-07  0.008088691  0.008088691 0.0080888401 1.1613963e-07 1.7025944e-11 6.5500046e-06 1.0017112e-09 8.8428278e-08 4.9564332e-09 
    2910 7.9416002e-07 1.1815388e-07  0.008090212  0.008090212 0.0080903302 8.9695608e-08 1.2898461e-11 5.1901944e-06 7.8566858e-10 4.394292e-08 3.9679115e-09 
    2940 6.2450728e-07 9.291321e-08 0.0080900053 0.0080900053 0.0080900982 6.9115838e-08 1.1487114e-11 4.0828542e-06 6.2025618e-10 4.8551816e-08 3.3810095e-09 
    2970 4.9088749e-07 7.3033469e-08 0.0080900887 0.0080900887 0.0080901617 5.2617098e-08 1.1199405e-11 3.2109939e-06 4.8564445e-10 2.8469371e-08 2.7904482e-09 
    3000 3.860383e-07 5.7434172e-08 0.0080910525 0.0080910525 0.0080911099 3.9606427e-08 1.0641804e-11 2.5269245e-06 3.7827278e-10 8.3647461e-09 2.3123433e-09 
Loop time of 2.55467 on 1 procs for 3000 steps with 1152 atoms

Pair  time (%) = 0 (0)
Neigh time (%) = 0 (0)
Comm  time (%) = 0.0043416 (0.169948)
Outpt time (%) = 0.052094 (2.03917)
Other time (%) = 2.49823 (97.7909)

Nlocal:    1152 ave 1152 max 1152 min
Histogram: 1 0 0 0 0 0 0 0 0 0
Nghost:    51 ave 51 max 51 min
Histogram: 1 0 0 0 0 0 0 0 0 0
Neighs:    0 ave 0 max 0 min
Histogram: 1 0 0 0 0 0 0 0 0 0

Total # of neighbors = 0
Ave neighs/atom = 0
Neighbor list builds = 0
Dangerous builds = 0
