9x16x20 FCC Cu(111) orthogonal, long side along x

      5760  atoms

         1  atom types

     0.00000000     39.84707439 xlo xhi
     0.00000000     40.89905622 ylo yhi
    -5.00000000     50.00000000 zlo zhi

Atoms

   1  1      0.00000000      0.00000000      0.00000000
   2  1      0.00000000      2.55619101      0.00000000
   3  1      0.00000000      5.11238203      0.00000000
   4  1      0.00000000      7.66857304      0.00000000
   5  1      0.00000000     10.22476406      0.00000000
   6  1      0.00000000     12.78095507      0.00000000
   7  1      0.00000000     15.33714608      0.00000000
   8  1      0.00000000     17.89333710      0.00000000
   9  1      0.00000000     20.44952811      0.00000000
  10  1      0.00000000     23.00571913      0.00000000
  11  1      0.00000000     25.56191014      0.00000000
  12  1      0.00000000     28.11810115      0.00000000
  13  1      0.00000000     30.67429217      0.00000000
  14  1      0.00000000     33.23048318      0.00000000
  15  1      0.00000000     35.78667420      0.00000000
  16  1      0.00000000     38.34286521      0.00000000
  17  1      4.42745271      0.00000000      0.00000000
  18  1      4.42745271      2.55619101      0.00000000
  19  1      4.42745271      5.11238203      0.00000000
  20  1      4.42745271      7.66857304      0.00000000
  21  1      4.42745271     10.22476406      0.00000000
  22  1      4.42745271     12.78095507      0.00000000
  23  1      4.42745271     15.33714608      0.00000000
  24  1      4.42745271     17.89333710      0.00000000
  25  1      4.42745271     20.44952811      0.00000000
  26  1      4.42745271     23.00571913      0.00000000
  27  1      4.42745271     25.56191014      0.00000000
  28  1      4.42745271     28.11810115      0.00000000
  29  1      4.42745271     30.67429217      0.00000000
  30  1      4.42745271     33.23048318      0.00000000
  31  1      4.42745271     35.78667420      0.00000000
  32  1      4.42745271     38.34286521      0.00000000
  33  1      8.85490542      0.00000000      0.00000000
  34  1      8.85490542      2.55619101      0.00000000
  35  1      8.85490542      5.11238203      0.00000000
  36  1      8.85490542      7.66857304      0.00000000
  37  1      8.85490542     10.22476406      0.00000000
  38  1      8.85490542     12.78095507      0.00000000
  39  1      8.85490542     15.33714608      0.00000000
  40  1      8.85490542     17.89333710      0.00000000
  41  1      8.85490542     20.44952811      0.00000000
  42  1      8.85490542     23.00571913      0.00000000
  43  1      8.85490542     25.56191014      0.00000000
  44  1      8.85490542     28.11810115      0.00000000
  45  1      8.85490542     30.67429217      0.00000000
  46  1      8.85490542     33.23048318      0.00000000
  47  1      8.85490542     35.78667420      0.00000000
  48  1      8.85490542     38.34286521      0.00000000
  49  1     13.28235813      0.00000000      0.00000000
  50  1     13.28235813      2.55619101      0.00000000
  51  1     13.28235813      5.11238203      0.00000000
  52  1     13.28235813      7.66857304      0.00000000
  53  1     13.28235813     10.22476406      0.00000000
  54  1     13.28235813     12.78095507      0.00000000
  55  1     13.28235813     15.33714608      0.00000000
  56  1     13.28235813     17.89333710      0.00000000
  57  1     13.28235813     20.44952811      0.00000000
  58  1     13.28235813     23.00571913      0.00000000
  59  1     13.28235813     25.56191014      0.00000000
  60  1     13.28235813     28.11810115      0.00000000
  61  1     13.28235813     30.67429217      0.00000000
  62  1     13.28235813     33.23048318      0.00000000
  63  1     13.28235813     35.78667420      0.00000000
  64  1     13.28235813     38.34286521      0.00000000
  65  1     17.70981084      0.00000000      0.00000000
  66  1     17.70981084      2.55619101      0.00000000
  67  1     17.70981084      5.11238203      0.00000000
  68  1     17.70981084      7.66857304      0.00000000
  69  1     17.70981084     10.22476406      0.00000000
  70  1     17.70981084     12.78095507      0.00000000
  71  1     17.70981084     15.33714608      0.00000000
  72  1     17.70981084     17.89333710      0.00000000
  73  1     17.70981084     20.44952811      0.00000000
  74  1     17.70981084     23.00571913      0.00000000
  75  1     17.70981084     25.56191014      0.00000000
  76  1     17.70981084     28.11810115      0.00000000
  77  1     17.70981084     30.67429217      0.00000000
  78  1     17.70981084     33.23048318      0.00000000
  79  1     17.70981084     35.78667420      0.00000000
  80  1     17.70981084     38.34286521      0.00000000
  81  1     22.13726355      0.00000000      0.00000000
  82  1     22.13726355      2.55619101      0.00000000
  83  1     22.13726355      5.11238203      0.00000000
  84  1     22.13726355      7.66857304      0.00000000
  85  1     22.13726355     10.22476406      0.00000000
  86  1     22.13726355     12.78095507      0.00000000
  87  1     22.13726355     15.33714608      0.00000000
  88  1     22.13726355     17.89333710      0.00000000
  89  1     22.13726355     20.44952811      0.00000000
  90  1     22.13726355     23.00571913      0.00000000
  91  1     22.13726355     25.56191014      0.00000000
  92  1     22.13726355     28.11810115      0.00000000
  93  1     22.13726355     30.67429217      0.00000000
  94  1     22.13726355     33.23048318      0.00000000
  95  1     22.13726355     35.78667420      0.00000000
  96  1     22.13726355     38.34286521      0.00000000
  97  1     26.56471626      0.00000000      0.00000000
  98  1     26.56471626      2.55619101      0.00000000
  99  1     26.56471626      5.11238203      0.00000000
 100  1     26.56471626      7.66857304      0.00000000
 101  1     26.56471626     10.22476406      0.00000000
 102  1     26.56471626     12.78095507      0.00000000
 103  1     26.56471626     15.33714608      0.00000000
 104  1     26.56471626     17.89333710      0.00000000
 105  1     26.56471626     20.44952811      0.00000000
 106  1     26.56471626     23.00571913      0.00000000
 107  1     26.56471626     25.56191014      0.00000000
 108  1     26.56471626     28.11810115      0.00000000
 109  1     26.56471626     30.67429217      0.00000000
 110  1     26.56471626     33.23048318      0.00000000
 111  1     26.56471626     35.78667420      0.00000000
 112  1     26.56471626     38.34286521      0.00000000
 113  1     30.99216897      0.00000000      0.00000000
 114  1     30.99216897      2.55619101      0.00000000
 115  1     30.99216897      5.11238203      0.00000000
 116  1     30.99216897      7.66857304      0.00000000
 117  1     30.99216897     10.22476406      0.00000000
 118  1     30.99216897     12.78095507      0.00000000
 119  1     30.99216897     15.33714608      0.00000000
 120  1     30.99216897     17.89333710      0.00000000
 121  1     30.99216897     20.44952811      0.00000000
 122  1     30.99216897     23.00571913      0.00000000
 123  1     30.99216897     25.56191014      0.00000000
 124  1     30.99216897     28.11810115      0.00000000
 125  1     30.99216897     30.67429217      0.00000000
 126  1     30.99216897     33.23048318      0.00000000
 127  1     30.99216897     35.78667420      0.00000000
 128  1     30.99216897     38.34286521      0.00000000
 129  1     35.41962168      0.00000000      0.00000000
 130  1     35.41962168      2.55619101      0.00000000
 131  1     35.41962168      5.11238203      0.00000000
 132  1     35.41962168      7.66857304      0.00000000
 133  1     35.41962168     10.22476406      0.00000000
 134  1     35.41962168     12.78095507      0.00000000
 135  1     35.41962168     15.33714608      0.00000000
 136  1     35.41962168     17.89333710      0.00000000
 137  1     35.41962168     20.44952811      0.00000000
 138  1     35.41962168     23.00571913      0.00000000
 139  1     35.41962168     25.56191014      0.00000000
 140  1     35.41962168     28.11810115      0.00000000
 141  1     35.41962168     30.67429217      0.00000000
 142  1     35.41962168     33.23048318      0.00000000
 143  1     35.41962168     35.78667420      0.00000000
 144  1     35.41962168     38.34286521      0.00000000
 145  1      2.21372635      1.27809551      0.00000000
 146  1      2.21372636      3.83428652      0.00000000
 147  1      2.21372636      6.39047754      0.00000000
 148  1      2.21372636      8.94666855      0.00000000
 149  1      2.21372636     11.50285956      0.00000000
 150  1      2.21372636     14.05905058      0.00000000
 151  1      2.21372636     16.61524159      0.00000000
 152  1      2.21372636     19.17143260      0.00000000
 153  1      2.21372636     21.72762362      0.00000000
 154  1      2.21372636     24.28381463      0.00000000
 155  1      2.21372636     26.84000565      0.00000000
 156  1      2.21372636     29.39619666      0.00000000
 157  1      2.21372636     31.95238767      0.00000000
 158  1      2.21372636     34.50857869      0.00000000
 159  1      2.21372636     37.06476970      0.00000000
 160  1      2.21372636     39.62096072      0.00000000
 161  1      6.64117907      1.27809551      0.00000000
 162  1      6.64117907      3.83428652      0.00000000
 163  1      6.64117907      6.39047754      0.00000000
 164  1      6.64117907      8.94666855      0.00000000
 165  1      6.64117907     11.50285956      0.00000000
 166  1      6.64117907     14.05905058      0.00000000
 167  1      6.64117907     16.61524159      0.00000000
 168  1      6.64117907     19.17143260      0.00000000
 169  1      6.64117907     21.72762362      0.00000000
 170  1      6.64117907     24.28381463      0.00000000
 171  1      6.64117907     26.84000565      0.00000000
 172  1      6.64117907     29.39619666      0.00000000
 173  1      6.64117907     31.95238767      0.00000000
 174  1      6.64117907     34.50857869      0.00000000
 175  1      6.64117907     37.06476970      0.00000000
 176  1      6.64117907     39.62096072      0.00000000
 177  1     11.06863178      1.27809551      0.00000000
 178  1     11.06863178      3.83428652      0.00000000
 179  1     11.06863178      6.39047754      0.00000000
 180  1     11.06863178      8.94666855      0.00000000
 181  1     11.06863178     11.50285956      0.00000000
 182  1     11.06863178     14.05905058      0.00000000
 183  1     11.06863178     16.61524159      0.00000000
 184  1     11.06863178     19.17143260      0.00000000
 185  1     11.06863178     21.72762362      0.00000000
 186  1     11.06863178     24.28381463      0.00000000
 187  1     11.06863178     26.84000565      0.00000000
 188  1     11.06863178     29.39619666      0.00000000
 189  1     11.06863178     31.95238767      0.00000000
 190  1     11.06863178     34.50857869      0.00000000
 191  1     11.06863178     37.06476970      0.00000000
 192  1     11.06863178     39.62096072      0.00000000
 193  1     15.49608449      1.27809551      0.00000000
 194  1     15.49608449      3.83428652      0.00000000
 195  1     15.49608449      6.39047754      0.00000000
 196  1     15.49608449      8.94666855      0.00000000
 197  1     15.49608449     11.50285956      0.00000000
 198  1     15.49608449     14.05905058      0.00000000
 199  1     15.49608449     16.61524159      0.00000000
 200  1     15.49608449     19.17143260      0.00000000
 201  1     15.49608449     21.72762362      0.00000000
 202  1     15.49608449     24.28381463      0.00000000
 203  1     15.49608449     26.84000565      0.00000000
 204  1     15.49608449     29.39619666      0.00000000
 205  1     15.49608449     31.95238767      0.00000000
 206  1     15.49608449     34.50857869      0.00000000
 207  1     15.49608449     37.06476970      0.00000000
 208  1     15.49608449     39.62096072      0.00000000
 209  1     19.92353720      1.27809551      0.00000000
 210  1     19.92353720      3.83428652      0.00000000
 211  1     19.92353720      6.39047754      0.00000000
 212  1     19.92353720      8.94666855      0.00000000
 213  1     19.92353720     11.50285956      0.00000000
 214  1     19.92353720     14.05905058      0.00000000
 215  1     19.92353720     16.61524159      0.00000000
 216  1     19.92353720     19.17143260      0.00000000
 217  1     19.92353720     21.72762362      0.00000000
 218  1     19.92353720     24.28381463      0.00000000
 219  1     19.92353720     26.84000565      0.00000000
 220  1     19.92353720     29.39619666      0.00000000
 221  1     19.92353720     31.95238767      0.00000000
 222  1     19.92353720     34.50857869      0.00000000
 223  1     19.92353720     37.06476970      0.00000000
 224  1     19.92353720     39.62096072      0.00000000
 225  1     24.35098991      1.27809551      0.00000000
 226  1     24.35098991      3.83428652      0.00000000
 227  1     24.35098991      6.39047754      0.00000000
 228  1     24.35098991      8.94666855      0.00000000
 229  1     24.35098991     11.50285956      0.00000000
 230  1     24.35098991     14.05905058      0.00000000
 231  1     24.35098991     16.61524159      0.00000000
 232  1     24.35098991     19.17143260      0.00000000
 233  1     24.35098991     21.72762362      0.00000000
 234  1     24.35098991     24.28381463      0.00000000
 235  1     24.35098991     26.84000565      0.00000000
 236  1     24.35098991     29.39619666      0.00000000
 237  1     24.35098991     31.95238767      0.00000000
 238  1     24.35098991     34.50857869      0.00000000
 239  1     24.35098991     37.06476970      0.00000000
 240  1     24.35098991     39.62096072      0.00000000
 241  1     28.77844262      1.27809551      0.00000000
 242  1     28.77844262      3.83428652      0.00000000
 243  1     28.77844262      6.39047754      0.00000000
 244  1     28.77844262      8.94666855      0.00000000
 245  1     28.77844262     11.50285956      0.00000000
 246  1     28.77844262     14.05905058      0.00000000
 247  1     28.77844262     16.61524159      0.00000000
 248  1     28.77844262     19.17143260      0.00000000
 249  1     28.77844262     21.72762362      0.00000000
 250  1     28.77844262     24.28381463      0.00000000
 251  1     28.77844262     26.84000565      0.00000000
 252  1     28.77844262     29.39619666      0.00000000
 253  1     28.77844262     31.95238767      0.00000000
 254  1     28.77844262     34.50857869      0.00000000
 255  1     28.77844262     37.06476970      0.00000000
 256  1     28.77844262     39.62096072      0.00000000
 257  1     33.20589533      1.27809551      0.00000000
 258  1     33.20589533      3.83428652      0.00000000
 259  1     33.20589533      6.39047754      0.00000000
 260  1     33.20589533      8.94666855      0.00000000
 261  1     33.20589533     11.50285956      0.00000000
 262  1     33.20589533     14.05905058      0.00000000
 263  1     33.20589533     16.61524159      0.00000000
 264  1     33.20589533     19.17143260      0.00000000
 265  1     33.20589533     21.72762362      0.00000000
 266  1     33.20589533     24.28381463      0.00000000
 267  1     33.20589533     26.84000565      0.00000000
 268  1     33.20589533     29.39619666      0.00000000
 269  1     33.20589533     31.95238767      0.00000000
 270  1     33.20589533     34.50857869      0.00000000
 271  1     33.20589533     37.06476970      0.00000000
 272  1     33.20589533     39.62096072      0.00000000
 273  1     37.63334804      1.27809551      0.00000000
 274  1     37.63334804      3.83428652      0.00000000
 275  1     37.63334804      6.39047754      0.00000000
 276  1     37.63334804      8.94666855      0.00000000
 277  1     37.63334804     11.50285956      0.00000000
 278  1     37.63334804     14.05905058      0.00000000
 279  1     37.63334804     16.61524159      0.00000000
 280  1     37.63334804     19.17143260      0.00000000
 281  1     37.63334804     21.72762362      0.00000000
 282  1     37.63334804     24.28381463      0.00000000
 283  1     37.63334804     26.84000565      0.00000000
 284  1     37.63334804     29.39619666      0.00000000
 285  1     37.63334804     31.95238767      0.00000000
 286  1     37.63334804     34.50857869      0.00000000
 287  1     37.63334804     37.06476970      0.00000000
 288  1     37.63334804     39.62096072      0.00000000
 289  1      0.73790879      1.27809551      2.08712122
 290  1      0.73790879      3.83428652      2.08712122
 291  1      0.73790879      6.39047754      2.08712122
 292  1      0.73790879      8.94666855      2.08712122
 293  1      0.73790879     11.50285956      2.08712122
 294  1      0.73790879     14.05905058      2.08712122
 295  1      0.73790879     16.61524159      2.08712122
 296  1      0.73790879     19.17143260      2.08712122
 297  1      0.73790879     21.72762362      2.08712122
 298  1      0.73790879     24.28381463      2.08712122
 299  1      0.73790879     26.84000565      2.08712122
 300  1      0.73790879     29.39619666      2.08712122
 301  1      0.73790879     31.95238767      2.08712122
 302  1      0.73790879     34.50857869      2.08712122
 303  1      0.73790879     37.06476970      2.08712122
 304  1      0.73790879     39.62096072      2.08712122
 305  1      5.16536150      1.27809551      2.08712122
 306  1      5.16536150      3.83428652      2.08712122
 307  1      5.16536150      6.39047754      2.08712122
 308  1      5.16536150      8.94666855      2.08712122
 309  1      5.16536150     11.50285956      2.08712122
 310  1      5.16536150     14.05905058      2.08712122
 311  1      5.16536150     16.61524159      2.08712122
 312  1      5.16536150     19.17143260      2.08712122
 313  1      5.16536150     21.72762362      2.08712122
 314  1      5.16536150     24.28381463      2.08712122
 315  1      5.16536150     26.84000565      2.08712122
 316  1      5.16536150     29.39619666      2.08712122
 317  1      5.16536150     31.95238767      2.08712122
 318  1      5.16536150     34.50857869      2.08712122
 319  1      5.16536150     37.06476970      2.08712122
 320  1      5.16536150     39.62096072      2.08712122
 321  1      9.59281421      1.27809551      2.08712122
 322  1      9.59281421      3.83428652      2.08712122
 323  1      9.59281421      6.39047754      2.08712122
 324  1      9.59281421      8.94666855      2.08712122
 325  1      9.59281421     11.50285956      2.08712122
 326  1      9.59281421     14.05905058      2.08712122
 327  1      9.59281421     16.61524159      2.08712122
 328  1      9.59281421     19.17143260      2.08712122
 329  1      9.59281421     21.72762362      2.08712122
 330  1      9.59281421     24.28381463      2.08712122
 331  1      9.59281421     26.84000565      2.08712122
 332  1      9.59281421     29.39619666      2.08712122
 333  1      9.59281421     31.95238767      2.08712122
 334  1      9.59281421     34.50857869      2.08712122
 335  1      9.59281421     37.06476970      2.08712122
 336  1      9.59281421     39.62096072      2.08712122
 337  1     14.02026692      1.27809551      2.08712122
 338  1     14.02026692      3.83428652      2.08712122
 339  1     14.02026692      6.39047754      2.08712122
 340  1     14.02026692      8.94666855      2.08712122
 341  1     14.02026692     11.50285956      2.08712122
 342  1     14.02026692     14.05905058      2.08712122
 343  1     14.02026692     16.61524159      2.08712122
 344  1     14.02026692     19.17143260      2.08712122
 345  1     14.02026692     21.72762362      2.08712122
 346  1     14.02026692     24.28381463      2.08712122
 347  1     14.02026692     26.84000565      2.08712122
 348  1     14.02026692     29.39619666      2.08712122
 349  1     14.02026692     31.95238767      2.08712122
 350  1     14.02026692     34.50857869      2.08712122
 351  1     14.02026692     37.06476970      2.08712122
 352  1     14.02026692     39.62096072      2.08712122
 353  1     18.44771963      1.27809551      2.08712122
 354  1     18.44771963      3.83428652      2.08712122
 355  1     18.44771963      6.39047754      2.08712122
 356  1     18.44771963      8.94666855      2.08712122
 357  1     18.44771963     11.50285956      2.08712122
 358  1     18.44771963     14.05905058      2.08712122
 359  1     18.44771963     16.61524159      2.08712122
 360  1     18.44771963     19.17143260      2.08712122
 361  1     18.44771963     21.72762362      2.08712122
 362  1     18.44771963     24.28381463      2.08712122
 363  1     18.44771963     26.84000565      2.08712122
 364  1     18.44771963     29.39619666      2.08712122
 365  1     18.44771963     31.95238767      2.08712122
 366  1     18.44771963     34.50857869      2.08712122
 367  1     18.44771963     37.06476970      2.08712122
 368  1     18.44771963     39.62096072      2.08712122
 369  1     22.87517234      1.27809551      2.08712122
 370  1     22.87517234      3.83428652      2.08712122
 371  1     22.87517234      6.39047754      2.08712122
 372  1     22.87517234      8.94666855      2.08712122
 373  1     22.87517234     11.50285956      2.08712122
 374  1     22.87517234     14.05905058      2.08712122
 375  1     22.87517234     16.61524159      2.08712122
 376  1     22.87517234     19.17143260      2.08712122
 377  1     22.87517234     21.72762362      2.08712122
 378  1     22.87517234     24.28381463      2.08712122
 379  1     22.87517234     26.84000565      2.08712122
 380  1     22.87517234     29.39619666      2.08712122
 381  1     22.87517234     31.95238767      2.08712122
 382  1     22.87517234     34.50857869      2.08712122
 383  1     22.87517234     37.06476970      2.08712122
 384  1     22.87517234     39.62096072      2.08712122
 385  1     27.30262505      1.27809551      2.08712122
 386  1     27.30262505      3.83428652      2.08712122
 387  1     27.30262505      6.39047754      2.08712122
 388  1     27.30262505      8.94666855      2.08712122
 389  1     27.30262505     11.50285956      2.08712122
 390  1     27.30262505     14.05905058      2.08712122
 391  1     27.30262505     16.61524159      2.08712122
 392  1     27.30262505     19.17143260      2.08712122
 393  1     27.30262505     21.72762362      2.08712122
 394  1     27.30262505     24.28381463      2.08712122
 395  1     27.30262505     26.84000565      2.08712122
 396  1     27.30262505     29.39619666      2.08712122
 397  1     27.30262505     31.95238767      2.08712122
 398  1     27.30262505     34.50857869      2.08712122
 399  1     27.30262505     37.06476970      2.08712122
 400  1     27.30262505     39.62096072      2.08712122
 401  1     31.73007776      1.27809551      2.08712122
 402  1     31.73007776      3.83428652      2.08712122
 403  1     31.73007776      6.39047754      2.08712122
 404  1     31.73007776      8.94666855      2.08712122
 405  1     31.73007776     11.50285956      2.08712122
 406  1     31.73007776     14.05905058      2.08712122
 407  1     31.73007776     16.61524159      2.08712122
 408  1     31.73007776     19.17143260      2.08712122
 409  1     31.73007776     21.72762362      2.08712122
 410  1     31.73007776     24.28381463      2.08712122
 411  1     31.73007776     26.84000565      2.08712122
 412  1     31.73007776     29.39619666      2.08712122
 413  1     31.73007776     31.95238767      2.08712122
 414  1     31.73007776     34.50857869      2.08712122
 415  1     31.73007776     37.06476970      2.08712122
 416  1     31.73007776     39.62096072      2.08712122
 417  1     36.15753047      1.27809551      2.08712122
 418  1     36.15753047      3.83428652      2.08712122
 419  1     36.15753047      6.39047754      2.08712122
 420  1     36.15753047      8.94666855      2.08712122
 421  1     36.15753047     11.50285956      2.08712122
 422  1     36.15753047     14.05905058      2.08712122
 423  1     36.15753047     16.61524159      2.08712122
 424  1     36.15753047     19.17143260      2.08712122
 425  1     36.15753047     21.72762362      2.08712122
 426  1     36.15753047     24.28381463      2.08712122
 427  1     36.15753047     26.84000565      2.08712122
 428  1     36.15753047     29.39619666      2.08712122
 429  1     36.15753047     31.95238767      2.08712122
 430  1     36.15753047     34.50857869      2.08712122
 431  1     36.15753047     37.06476970      2.08712122
 432  1     36.15753047     39.62096072      2.08712122
 433  1      2.95163514      0.00000000      2.08712122
 434  1      2.95163514      2.55619101      2.08712122
 435  1      2.95163514      5.11238203      2.08712122
 436  1      2.95163514      7.66857304      2.08712122
 437  1      2.95163514     10.22476406      2.08712122
 438  1      2.95163514     12.78095507      2.08712122
 439  1      2.95163514     15.33714608      2.08712122
 440  1      2.95163514     17.89333710      2.08712122
 441  1      2.95163514     20.44952811      2.08712122
 442  1      2.95163514     23.00571913      2.08712122
 443  1      2.95163514     25.56191014      2.08712122
 444  1      2.95163514     28.11810115      2.08712122
 445  1      2.95163514     30.67429217      2.08712122
 446  1      2.95163514     33.23048318      2.08712122
 447  1      2.95163514     35.78667420      2.08712122
 448  1      2.95163514     38.34286521      2.08712122
 449  1      7.37908785      0.00000000      2.08712122
 450  1      7.37908785      2.55619101      2.08712122
 451  1      7.37908785      5.11238203      2.08712122
 452  1      7.37908785      7.66857304      2.08712122
 453  1      7.37908785     10.22476406      2.08712122
 454  1      7.37908785     12.78095507      2.08712122
 455  1      7.37908785     15.33714608      2.08712122
 456  1      7.37908785     17.89333710      2.08712122
 457  1      7.37908785     20.44952811      2.08712122
 458  1      7.37908785     23.00571913      2.08712122
 459  1      7.37908785     25.56191014      2.08712122
 460  1      7.37908785     28.11810115      2.08712122
 461  1      7.37908785     30.67429217      2.08712122
 462  1      7.37908785     33.23048318      2.08712122
 463  1      7.37908785     35.78667420      2.08712122
 464  1      7.37908785     38.34286521      2.08712122
 465  1     11.80654056      0.00000000      2.08712122
 466  1     11.80654056      2.55619101      2.08712122
 467  1     11.80654056      5.11238203      2.08712122
 468  1     11.80654056      7.66857304      2.08712122
 469  1     11.80654056     10.22476406      2.08712122
 470  1     11.80654056     12.78095507      2.08712122
 471  1     11.80654056     15.33714608      2.08712122
 472  1     11.80654056     17.89333710      2.08712122
 473  1     11.80654056     20.44952811      2.08712122
 474  1     11.80654056     23.00571913      2.08712122
 475  1     11.80654056     25.56191014      2.08712122
 476  1     11.80654056     28.11810115      2.08712122
 477  1     11.80654056     30.67429217      2.08712122
 478  1     11.80654056     33.23048318      2.08712122
 479  1     11.80654056     35.78667420      2.08712122
 480  1     11.80654056     38.34286521      2.08712122
 481  1     16.23399327      0.00000000      2.08712122
 482  1     16.23399327      2.55619101      2.08712122
 483  1     16.23399327      5.11238203      2.08712122
 484  1     16.23399327      7.66857304      2.08712122
 485  1     16.23399327     10.22476406      2.08712122
 486  1     16.23399327     12.78095507      2.08712122
 487  1     16.23399327     15.33714608      2.08712122
 488  1     16.23399327     17.89333710      2.08712122
 489  1     16.23399327     20.44952811      2.08712122
 490  1     16.23399327     23.00571913      2.08712122
 491  1     16.23399327     25.56191014      2.08712122
 492  1     16.23399327     28.11810115      2.08712122
 493  1     16.23399327     30.67429217      2.08712122
 494  1     16.23399327     33.23048318      2.08712122
 495  1     16.23399327     35.78667420      2.08712122
 496  1     16.23399327     38.34286521      2.08712122
 497  1     20.66144598      0.00000000      2.08712122
 498  1     20.66144598      2.55619101      2.08712122
 499  1     20.66144598      5.11238203      2.08712122
 500  1     20.66144598      7.66857304      2.08712122
 501  1     20.66144598     10.22476406      2.08712122
 502  1     20.66144598     12.78095507      2.08712122
 503  1     20.66144598     15.33714608      2.08712122
 504  1     20.66144598     17.89333710      2.08712122
 505  1     20.66144598     20.44952811      2.08712122
 506  1     20.66144598     23.00571913      2.08712122
 507  1     20.66144598     25.56191014      2.08712122
 508  1     20.66144598     28.11810115      2.08712122
 509  1     20.66144598     30.67429217      2.08712122
 510  1     20.66144598     33.23048318      2.08712122
 511  1     20.66144598     35.78667420      2.08712122
 512  1     20.66144598     38.34286521      2.08712122
 513  1     25.08889869      0.00000000      2.08712122
 514  1     25.08889869      2.55619101      2.08712122
 515  1     25.08889869      5.11238203      2.08712122
 516  1     25.08889869      7.66857304      2.08712122
 517  1     25.08889869     10.22476406      2.08712122
 518  1     25.08889869     12.78095507      2.08712122
 519  1     25.08889869     15.33714608      2.08712122
 520  1     25.08889869     17.89333710      2.08712122
 521  1     25.08889869     20.44952811      2.08712122
 522  1     25.08889869     23.00571913      2.08712122
 523  1     25.08889869     25.56191014      2.08712122
 524  1     25.08889869     28.11810115      2.08712122
 525  1     25.08889869     30.67429217      2.08712122
 526  1     25.08889869     33.23048318      2.08712122
 527  1     25.08889869     35.78667420      2.08712122
 528  1     25.08889869     38.34286521      2.08712122
 529  1     29.51635140      0.00000000      2.08712122
 530  1     29.51635140      2.55619101      2.08712122
 531  1     29.51635140      5.11238203      2.08712122