LAMMPS (7 Jul 2009)
# 3D Copper block simulation
units         metal
boundary      p p fs
atom_style    atomic

# read in initial configuration
read_data     data.pos
  orthogonal box = (0 0 -5) to (39.8471 40.8991 50)
  1 by 2 by 2 processor grid
  5760 atoms

# define groups
group         bottom id > 5472
288 atoms in group bottom
group         upper  id < 289
288 atoms in group upper
group         slab   subtract all bottom upper
5184 atoms in group slab
group         mobile subtract all upper
5472 atoms in group mobile

# EAM potential
pair_style    eam
pair_coeff    * * cuu3.eam
mass          1 63.55

#
neighbor      4.0 nsq
neigh_modify  every 4 delay 0 check yes

# Define Langevin thermostat parameters
variable      r equal 570835
variable      t equal 100
variable      d equal 1000

# Create velocities
compute       MyTemp mobile temp
velocity      mobile create $t 28711 mom yes rot yes dist gaussian temp MyTemp
velocity      mobile create 100 28711 mom yes rot yes dist gaussian temp MyTemp
velocity      upper set 0 0 0 units box

# Defines fixes, gfc is used to measure the elastic stiffness coefficients
fix           1 mobile langevin $t $t $d $r
fix           1 mobile langevin 100 $t $d $r
fix           1 mobile langevin 100 100 $d $r
fix           1 mobile langevin 100 100 1000 $r
fix           1 mobile langevin 100 100 1000 570835
fix_modify    1 temp MyTemp
fix           2 mobile nve
fix           3 bottom gfc 20 250000 5000000 EAMCu111 su 4.427453  0.0 sv 0 2.556191
fix_modify    3 temp MyTemp

# Thermo output 
thermo        1000
thermo_style  custom step temp pe etotal pxx pyy pzz pxy pxz pyz press
thermo_modify temp MyTemp

# Dump trajectory, can be visualized via vmd
dump          1 all atom 100000 dump_EAM3D_GFC.lammpstrj 

# Run for 10500000 steps; the measurement is done in the last 10 million steps
run           15000000
Memory usage per processor = 2.47679 Mbytes
Step Temp PotEng TotEng Pxx Pyy Pzz Pxy Pxz Pyz Press 
       0          100   -20149.233   -20078.515   -4103.3894   -4104.4252   -2142.9507    7.4109073   -14.905056    10.156707   -3450.2551 
    1000    51.492143   -20114.794   -20078.379     -1923.93   -1907.5366    402.91229   -35.891147  -0.68549932   -82.029314   -1142.8514 
    2000    50.088427   -20113.727   -20078.306   -2012.8041    -1869.648    73.243653     39.07879     63.36281    35.248922   -1269.7361 
    3000     50.51432   -20113.933   -20078.211   -1526.9645   -1563.1561    1204.3055    -35.04951   -41.727328   -80.711223   -628.60505 
    4000    51.437388   -20114.531   -20078.155   -1863.2746   -1984.7424    203.98051   -10.192594   -53.872408    16.796794   -1214.6788 
    5000    50.184446    -20113.58    -20078.09   -2219.4427   -2143.8905   -658.57759    50.990127     20.26241    40.609376   -1673.9703 
    6000    50.495605   -20113.757   -20078.048   -1602.2947   -1647.2728    789.43325   -15.295707   -33.611513   -13.278063   -820.04475 
    7000    50.752173   -20113.832   -20077.941   -2038.6375   -2044.1567   -428.14662    56.917314   -13.030104    75.074875   -1503.6469 
    8000    51.206153   -20114.038   -20077.826   -2086.8282    -2040.988   -411.47573    8.1327896   -1.7847236   -16.821637   -1513.0973 
    9000    50.945927   -20113.841   -20077.813   -2240.9505   -2270.2514   -836.48168   -12.390643   -68.186593   -1.5301098   -1782.5612 
   10000    51.542211   -20114.179   -20077.729   -2432.3309   -2349.2139   -1155.5868    17.759688    30.603367     6.051662   -1979.0438 
   11000    51.282117   -20113.918   -20077.652   -2345.0107   -2332.4854   -1061.2474   -65.930299    7.4851685   -45.831247   -1912.9145 
   12000     51.73551   -20114.172   -20077.586   -2364.5624   -2362.2084   -1008.1262    48.242848   -18.640215    41.009631   -1911.6323 
   13000    50.843285   -20113.453   -20077.498   -2105.1271   -2079.7899   -340.86428    14.009219    19.239259    -28.66539   -1508.5937 
   14000     51.36891   -20113.684   -20077.356   -2494.3721   -2520.1584   -1448.3427   -51.351972   0.60530341   -68.496636   -2154.2911 
   15000    51.846195   -20113.966   -20077.301   -1964.8704   -1962.1455     43.25118   -3.7509127    43.269598    50.695994   -1294.5882 
   16000    51.597863   -20113.729    -20077.24    -1767.154    -1707.923    568.38419   -12.970084    80.707807   -39.682173   -968.89762 
   17000     51.54439    -20113.64   -20077.188   -1910.7215   -2028.6214    8.3362004    33.565335   -72.092718    59.189655   -1310.3356 
   18000    51.016758    -20113.12   -20077.042     -1461.55    -1505.156    1112.0799    82.544859   -34.921125    75.538729   -618.20871 
   19000    52.263054   -20114.004   -20077.044   -1795.0726   -1789.1039     456.6675   -63.590985    -85.27874    -47.14344    -1042.503 
   20000    52.142547   -20113.881   -20077.007    -1594.822   -1623.3358    914.54807   -31.768612    39.443105   -9.9606132   -767.86991 
   21000    52.364892   -20114.005   -20076.974   -1735.4811    -1692.208    679.59077   -115.58549    38.502115   -88.910218   -916.03277 
   22000    51.764674   -20113.474   -20076.867   -1579.0155   -1519.6978    1081.6179   -58.366944    28.515694   -38.137688   -672.36512 
   23000    51.654325   -20113.297   -20076.768   -1991.6389      -1870.6    149.88836   -50.427401    100.87917   -63.253781   -1237.4502 
   24000    52.054324   -20113.505   -20076.694   -2046.9641   -2058.4797    -260.4086   -18.647531   -18.429392   -21.959782   -1455.2842 
   25000    52.271916   -20113.598   -20076.632   -1780.5978   -1718.8415    568.87733    80.429606    33.526816    126.33035     -976.854 
   26000    51.521044   -20113.094    -20076.66   -2064.8118   -2141.2012   -445.12207   -23.860736   -63.756208    40.072184   -1550.3783 
   27000    52.184614   -20113.463   -20076.558   -1850.7819   -1969.3908    37.298836     27.55407   -95.211488    20.637039    -1260.958 
   28000    52.199112   -20113.469   -20076.554   -1897.2665   -1960.0238   -159.72842  -0.61128442    23.659852     96.64107   -1339.0063 
   29000    51.792997   -20113.149   -20076.522   -2215.2981   -2260.0483   -881.81233    -131.0578   -64.738526   -214.93077   -1785.7196 
   30000    51.531284   -20112.927   -20076.485   -2051.5515   -1981.0807    -365.4636   -25.768946    35.908801   -34.117433   -1466.0319 
   31000    51.979698   -20113.179    -20076.42   -2093.1777   -1913.0238   -286.00901   -44.568512     172.6908    -11.42379   -1430.7369 
   32000    51.681701   -20112.879   -20076.331    -1991.727   -2028.1443   -361.96201    21.646315   -33.569976    5.1237455   -1460.6111 
   33000    52.966787   -20113.696   -20076.239   -2395.4133   -2344.5203    -1123.805    191.05206     46.88344    238.70588   -1954.5795 
   34000    52.211158   -20113.038   -20076.115   -1958.4716   -2095.7414   -303.42542    4.5220292   -32.947344    8.9616307   -1452.5461 
   35000    52.085056   -20112.887   -20076.054   -1990.6578   -2110.2137   -447.86909    66.977868   -97.738996    87.905591   -1516.2468 
   36000    52.176649   -20112.861   -20075.962   -2305.3438   -2191.5079   -874.77904   -12.608182    54.563318   -2.9919558   -1790.5436 
   37000    52.220986   -20112.841   -20075.912   -1810.2523   -1833.9135    244.74641   -213.28728   -92.994024   -306.88853   -1133.1398 
   38000    53.236728   -20113.483   -20075.835   -2033.1247    -1928.109   -58.261062   -13.080701    104.57162   -29.525464   -1339.8316 
   39000    52.813439   -20113.111   -20075.762   -2025.7874   -1862.6272    27.351106   -70.138186    108.56937   -81.766967   -1287.0211 
   40000    53.299019   -20113.375   -20075.683   -1735.4352    -1812.994    618.51083   -3.0811402   -77.355128    40.196555   -976.63944 
   41000    52.936159   -20113.028   -20075.592   -1524.4174   -1411.1188     1200.119    167.75376    75.838874    318.68541   -578.47241 
   42000    53.350488   -20113.261   -20075.532    -1584.541   -1701.6643     673.3527    36.729133   -93.319175    1.7367411   -870.95087 
   43000    52.990474    -20112.95   -20075.476   -1541.3195   -1636.4218    882.30695    54.692445   -70.667374    72.222458   -765.14481 
   44000    53.422737   -20113.179     -20075.4   -1525.3995   -1496.5996    1055.0806    1.7167073    13.193603   -58.242287   -655.63954 
   45000    53.120826   -20112.865   -20075.299   -1905.5591   -1914.7798    55.434911    -150.6354    17.609371   -275.76443    -1254.968 
   46000    52.258112   -20112.241   -20075.285   -1766.2447    -1635.093    489.48447   -45.267428    61.542405   -44.806087   -970.61774 
   47000    53.396952   -20112.972   -20075.211   -1773.6011   -1815.0641    337.31357   -27.727541   -5.4611591   -102.52686   -1083.7839 
   48000    52.786668   -20112.537   -20075.207   -2131.3306   -2105.6677   -584.84318     75.86021   -71.576785    91.574735   -1607.2805 
   49000    53.183606   -20112.763   -20075.152   -2158.4512   -2161.4019   -634.24797    115.48107   -65.324164    157.30983    -1651.367 
   50000    53.335993   -20112.832   -20075.113   -2083.5159   -2142.9723    -600.6377    9.0119512   -59.402858    20.150424    -1609.042 
   51000    52.831078   -20112.405   -20075.044   -2055.1051   -2077.5638   -519.60135    71.652263   -24.626799    92.137128   -1550.7567 
   52000    52.418533   -20112.025   -20074.956   -2283.7652   -2141.3191   -991.17502   -114.83783    86.142477   -178.41237   -1805.4198 
   53000    52.643166   -20112.099   -20074.871   -2230.5655   -1991.1426   -717.95206   -89.858937    79.011701   -149.67408   -1646.5534 
   54000    53.471792   -20112.643   -20074.828   -2174.1056   -2059.8092   -639.11944   -12.619744    -16.73964    -26.98595   -1624.3447 
   55000    52.804451   -20112.104   -20074.762   -2139.2751    -2121.996   -739.37917    -37.55054   -16.140994   -24.661251   -1666.8834 
   56000    53.472605   -20112.578   -20074.763   -1690.9085    -1869.322    158.15991    115.89536   -79.866503    203.67283   -1134.0235 
   57000     53.60086    -20112.62   -20074.715   -1963.7304   -2100.4331    -366.8707    54.184078   -148.09441    57.190134   -1477.0114 
   58000    52.766387   -20111.954   -20074.639   -1959.8129   -1919.7271   -214.27885   -46.786068   -13.993799   -23.478171   -1364.6063 
   59000    53.337811   -20112.296   -20074.576   -1749.6551   -1737.4194    289.84751    28.720161     30.87499    9.2813863   -1065.7424 
   60000    53.486134   -20112.364    -20074.54    -1669.452   -1624.5329    676.37441   -191.77776    114.29046   -248.25988   -872.53681 
   61000    53.211754   -20112.073   -20074.442   -1839.8511   -1596.8167    442.99884   -29.248155    166.17287   -28.039113   -997.88964 
   62000    53.569858   -20112.254   -20074.371   -1744.1954   -1741.1253      436.872   -36.651494   -34.761005   -14.136181   -1016.1496 
   63000    54.152651   -20112.609   -20074.313   -1450.6469   -1534.0946    1158.4147   -3.5726665   -69.409081   -24.169991   -608.77561 
   64000    53.336296   -20111.963   -20074.245    -1724.132   -1864.2296    296.86386     181.7608   -80.783111    271.95754   -1097.1659 
   65000     54.10197    -20112.44    -20074.18   -1406.5478   -1608.4679    1087.2913   -61.956557   -132.64598   -80.456088    -642.5748 
   66000    54.708235   -20112.762   -20074.073   -1611.7514   -1605.8705    832.25295   -6.1536098   -24.125363    22.744338   -795.12299 
   67000    54.221489   -20112.377   -20074.033   -1837.8029   -1872.8884    28.145159    37.902901    15.318178   -9.9245343   -1227.5154 
   68000    54.127059   -20112.235   -20073.958   -1799.3481   -1715.0524    304.79436   -172.22136    62.034791   -252.66232   -1069.8687 
   69000    53.803516   -20111.979    -20073.93   -1912.4023    -1708.091    115.72206    65.738137    123.67816    132.78405   -1168.2571 
   70000    53.878219   -20112.019   -20073.917   -1938.4167   -1938.4841   -307.00209    1.9268729   -13.383555    16.880943   -1394.6343 
   71000    53.639786   -20111.769   -20073.836   -2116.9953    -2268.549   -882.29004   -16.966424   -131.69939    -45.29316   -1755.9448 
   72000    53.937489   -20111.876   -20073.732   -1830.1815   -1943.6047   -176.73908    165.61737   -151.96784    283.52825   -1316.8417 
   73000    53.710096   -20111.608   -20073.625    -2142.487   -2295.4318   -1093.3213   -36.155869   -115.30263   -85.090441   -1843.7467 
   74000    53.948581   -20111.729   -20073.577   -2270.2041   -2222.2517   -1161.2342    82.960383    49.338754    91.584482   -1884.5633 
   75000    54.297853    -20111.85   -20073.451   -1977.3402   -1863.1319   -179.29051   -21.145115    106.79444   -56.834565   -1339.9209 
   76000    53.907099   -20111.527   -20073.405   -2397.5494   -2173.2664   -1194.0861   -140.16944     110.0734   -197.77013    -1921.634 
   77000     54.60126   -20111.979   -20073.366   -2242.7978   -2145.1694    -871.2612    18.857633    72.066993    30.199997   -1753.0761 
   78000    54.123355   -20111.662   -20073.387   -1875.6059   -1877.4875    -77.72127    12.062805    11.684056    33.099515   -1276.9382 
   79000    53.617556   -20111.222   -20073.305   -1598.7318   -1750.6274     456.6245    102.91018   -102.15053     154.7609   -964.24489 
   80000    54.981889   -20112.068   -20073.185   -1831.1521   -1938.4102   -141.76689    162.19061   -23.602726    234.22558   -1303.7764 
   81000    54.709541    -20111.78    -20073.09   -1658.4905   -1647.4496    497.44406    4.3097892   -45.813399    22.478093   -936.16533 
   82000    54.560574   -20111.573   -20072.989   -1571.2776   -1465.6837    881.69554     52.04003     20.98426     81.69215   -718.42193 
   83000    54.486364    -20111.41   -20072.878   -1909.6586   -1804.7671   -33.905821   -48.098907    53.635449   -153.43704   -1249.4438 
   84000    54.756845   -20111.537   -20072.814   -1378.8146   -1298.4939    1365.3072   -115.51601    47.912052   -216.61467   -437.33378 
   85000    55.358985   -20111.859    -20072.71   -1606.7189   -1570.5182    842.72951    30.439252    79.057814    34.515057    -778.1692 
   86000    55.546527   -20111.888   -20072.606   -1939.4638   -1890.4897     28.16087   -21.303415   -39.330943    -83.24906   -1267.2642 
   87000    54.805375    -20111.35   -20072.592   -1695.7193   -1620.8831    464.76057    110.63466    52.054994    124.10658   -950.61395 
   88000    55.421606   -20111.718   -20072.525   -1513.2743   -1558.1414    766.04661    98.798406   -46.309667    123.23531   -768.45638 
   89000    54.083131   -20110.763   -20072.517   -1745.1357   -1817.6878   -15.665778    57.657977   -83.031166    28.457594   -1192.8297 
   90000     54.89413   -20111.267   -20072.447   -2022.9896   -1904.9452   -312.12854    36.876921    101.81605    130.05584   -1413.3544 
   91000    55.647978   -20111.645   -20072.292   -1781.2478   -1812.0163     97.00199   -60.256487   -35.866136   -132.59069   -1165.4207 
   92000    55.073938   -20111.133   -20072.185   -2092.7853   -2030.4137   -819.76338   -84.010387    70.919402   -124.42336   -1647.6541 
   93000    55.172215   -20111.158   -20072.141   -2071.6427   -1962.8444   -600.06282   -15.324116    66.166535   -27.995617     -1544.85 
   94000    55.887506    -20111.59   -20072.067   -1629.8785   -1778.8819    127.62404   -40.809699   -57.371289   -89.156026   -1093.7121 
   95000    55.115739   -20110.989   -20072.012   -2330.8884    -2252.069   -1240.9842    108.36172    88.189976    196.24768   -1941.3138 
   96000    55.262652   -20110.964   -20071.884   -2135.7593   -2162.8984   -979.36447    34.758113   -41.445819     84.29554   -1759.3407 
   97000    54.829118   -20110.643   -20071.869   -1801.6425   -1772.9105    -1.951174    23.198105    55.013737    47.062474    -1192.168 
   98000    55.087844   -20110.808    -20071.85   -2025.6706   -1909.7929   -411.70338    41.729131    93.691614    56.674782   -1449.0556 
   99000    55.832303   -20111.311   -20071.827   -2003.2869   -2032.2301   -648.01039   -102.44741    23.464367   -150.32877   -1561.1758 
  100000    55.985858   -20111.376   -20071.784   -1796.8787   -1677.4806     324.4042   -81.180945    36.986067   -77.222543    -1049.985 
  101000    55.731496   -20111.133    -20071.72    -1747.991   -1722.7729    202.18433    -1.216543    6.6016799   -16.441327   -1089.5265 
  102000    55.372046   -20110.818    -20071.66   -1884.7351     -1906.87   -347.90953   -86.968349   -19.178145   -43.063065   -1379.8382 
  103000    55.747277   -20111.079   -20071.656   -1427.2572   -1258.8294    1133.3925    136.68071    76.810138    161.18466   -517.56469 
  104000    55.481719    -20110.81   -20071.574   -1560.4615   -1643.1499    551.00509   -18.900347    -54.06882   -13.747303   -884.20212 
  105000    55.364289   -20110.664   -20071.511   -1824.3767   -1752.8277    51.869055   -15.692843     64.29706   -30.921068   -1175.1118 
  106000    56.013628   -20111.073   -20071.461   -1503.3434   -1428.4109    976.33552   -46.616524    84.297414    -43.74897   -651.80629 
  107000    56.070892   -20111.088   -20071.435   -1526.8189   -1541.9064    769.38291   -158.52659   -3.3442689   -177.46727   -766.44748 
  108000    56.178354   -20111.105   -20071.376   -1642.8014   -1669.6856    392.79661   -118.36926   -9.7623616   -97.026117   -973.23012 
  109000    56.253659   -20111.124   -20071.342   -1586.9422   -1736.9668    314.80232    7.1883935   -126.75545   -2.3871269   -1003.0356 
  110000    56.133563   -20110.895   -20071.199   -1646.3509   -1589.1721    543.54965   -13.024399   -35.542331   -22.431087   -897.32445 
  111000    56.136377   -20110.852   -20071.153   -2016.9938   -2052.2392   -569.31186    87.771283   -43.816119    157.63071   -1546.1816 
  112000    55.613537   -20110.377   -20071.048   -1834.9133   -1862.7328   -230.17408    98.501567   -75.628954    106.54838   -1309.2734 
  113000    56.267089   -20110.801    -20071.01   -1801.4184   -1627.6789      342.597   -7.5411991    110.11268   -52.145707   -1028.8334 
  114000    56.388767   -20110.833   -20070.956   -2255.1455   -2176.7944   -1139.9912    -21.69348     40.33621   -107.78122   -1857.3104 
  115000    56.465833   -20110.773   -20070.841   -2138.4462   -2004.8291   -819.93878   -119.66669     77.92289   -133.11785   -1654.4047 
  116000    56.340608   -20110.596   -20070.753   -1857.6544   -1903.1604   -336.71962   -70.968578    3.9250914   -117.59725   -1365.8448 
  117000    56.054884   -20110.311    -20070.67   -1821.5951    -2094.866   -577.29573    7.7547889   -211.16538    1.6621786   -1497.9189 
  118000     56.49404   -20110.553   -20070.602   -1914.7145   -2087.4028   -764.86246    47.310386   -107.61241    96.588861   -1588.9933 
  119000    55.845284   -20110.029   -20070.537   -1622.1985   -1788.9182    38.207191    184.33005   -129.26838    213.66891   -1124.3032 
  120000     56.66191   -20110.518   -20070.448   -1845.7447   -1955.9832   -394.25114     17.70931    -2.706873    40.157461   -1398.6597 
  121000    56.478944    -20110.34   -20070.399    -1998.169   -1877.4721   -542.81014   -26.666906    195.74383   -36.511571   -1472.8171 
  122000    56.656817   -20110.423   -20070.356   -1432.6185    -1299.763    1080.6326   -113.45729    118.36362   -118.79851   -550.58296 
  123000    57.329943   -20110.796   -20070.253   -1842.3903   -1720.1706   -93.727534    -111.8874    95.950424    -131.2505   -1218.7628 
  124000    56.953739   -20110.441   -20070.164   -1786.8578   -1852.7507   -234.45838   -9.3770516   -66.605019    25.362039   -1291.3556 
  125000    56.794269   -20110.215   -20070.051     -1325.53   -1581.0038    829.25751   -11.628731   -205.55073   -27.836872   -692.42542 
  126000    56.276618   -20109.813   -20070.015   -1431.6911    -1555.724    606.90511    23.384063   -112.71751    78.988428   -793.50333 
  127000    56.453245   -20109.844   -20069.921   -1513.9264   -1673.3322    287.22373    75.549505   -125.07962     143.0723   -966.67829 
  128000    57.378595   -20110.418   -20069.841   -1586.3676   -1647.3092    411.59381   -49.183296   -28.605315    -16.44894   -940.69434 
  129000     56.54776   -20109.777   -20069.787   -1557.4179   -1362.3651     773.2079    80.712605    100.36568    75.632924   -715.52503 
  130000    56.878487       -20110   -20069.777   -1882.5044   -1724.5774   -129.75109     -106.066    102.31638   -209.29802    -1245.611 
  131000    56.826109   -20109.896   -20069.709   -1647.2216   -1505.4813    343.63436   -79.382707    100.06619   -136.23887   -936.35618 
  132000    57.392179   -20110.216   -20069.629   -1525.5392   -1582.5081    548.51808    57.843329   -70.793446     86.42863   -853.17638 
  133000    57.190894   -20109.973   -20069.529   -1983.9169   -2148.5865   -852.66083   -14.027517   -118.54064   -28.247882   -1661.7214 
  134000    57.222459   -20109.954   -20069.487   -1739.9377   -1879.9124   -259.31112    71.760782   -68.520481    141.25199   -1293.0537 
  135000    57.055128   -20109.693   -20069.345   -1697.6065   -1861.4713   -146.29581    74.085901   -52.743289    127.25039   -1235.1245 
  136000    57.915257   -20110.201   -20069.244   -2046.3214   -1935.2567   -622.89923   -61.051603    69.407838   -93.982724   -1534.8258 
  137000    56.362708   -20109.071   -20069.212   -2071.5444   -1902.5498   -718.41604    6.6451554    161.55588     16.24193   -1564.1701 
  138000    57.268255    -20109.68   -20069.181   -1846.0283   -1717.9985   -69.325141   -97.903871     67.41283   -111.19561   -1211.1173 
  139000    56.899008   -20109.288    -20069.05   -1982.7542   -1866.7959   -563.58856   -26.268735    96.242821   -19.487999   -1471.0462 
  140000    57.310751   -20109.553   -20069.023   -2069.0347   -2004.3485   -790.13456    55.549555   -34.363016    29.280821   -1621.1726 
  141000    56.773608   -20109.142   -20068.993   -1400.2311   -1533.7872    571.47481   -7.0799967   -64.655043    19.131746   -787.51449 
  142000    57.210332   -20109.382   -20068.924   -1873.9826   -1767.7261   -277.34212    111.03851     3.931206    109.51201   -1306.3503 
  143000    56.771597   -20109.068    -20068.92   -1773.8767   -1828.0925    -264.3334    13.564428   -53.232298    21.291567   -1288.7675 
  144000    57.488066   -20109.502   -20068.847   -1610.7003   -1361.4651     777.2732   -15.193522    181.16884   -35.464872   -731.63073 
  145000    57.579716   -20109.476   -20068.756   -1704.5089   -1455.0037    354.53043   -41.596434    138.34645   -66.126278   -934.99405 
  146000    58.002426   -20109.721   -20068.702   -1695.9129   -1625.9223    112.42603   -73.104019    43.940908   -146.70373   -1069.8031 
  147000    58.296405   -20109.789   -20068.563   -1553.8574   -1471.9337    528.84732    22.929093    43.584364   -16.842532   -832.31458 
  148000     57.50819   -20109.158   -20068.489   -1314.5526   -1447.6946    899.24685   -24.949203   -131.71742   -54.976805   -621.00012 
  149000    58.214758   -20109.554   -20068.386   -1732.7417   -1840.9977   -168.25756    31.607045   -86.834688    102.69963   -1247.3323 
  150000     57.94136   -20109.231   -20068.256   -1451.6607   -1517.2712    636.08257    115.23259    11.892049    140.50553   -777.61645 
  151000    56.984189   -20108.503   -20068.205   -1508.8028   -1533.4868    461.67853   -19.077187   -9.3443904   -2.4905644    -860.2037 
  152000    58.011469   -20109.237   -20068.212   -2088.8466   -1887.8523    -757.8723    69.939774    74.335025    78.507669   -1578.1904 
  153000     58.12118   -20109.252    -20068.15    -1772.857   -1649.4074    54.876809   -88.568389    82.021036   -168.19541   -1122.4625 
  154000    57.615245   -20108.794    -20068.05   -1737.6264    -1630.473     87.42906   -37.482223     126.1336   -51.478852   -1093.5568 
  155000    58.022149   -20108.996   -20067.964   -1920.7372    -1839.404   -435.36585    101.93587    73.241082    150.44172   -1398.5024 
  156000    58.889105   -20109.539   -20067.894   -1835.4903   -2081.1986   -533.50582   -15.886138   -189.86081   -20.234155   -1483.3983 
  157000    57.870624    -20108.71   -20067.785   -1670.2985   -1728.9427   -49.313858    187.57923   -70.440127    161.94919   -1149.5184 
  158000    58.571768    -20109.16   -20067.739    -1935.543    -2048.583   -686.02967    119.10166   -74.153817    98.319388   -1556.7185 
  159000    57.653537   -20108.494   -20067.722   -1884.3078   -1847.4457    -523.8471   -143.60101   -56.091336    -171.9328   -1418.5335 
  160000    58.062973   -20108.737   -20067.676   -1640.9758    -1449.671    440.19494    49.788101    111.95935    24.239322   -883.48395 
  161000    57.568161   -20108.388   -20067.677   -1860.0431   -1861.8298   -444.13957   -102.97346   -6.4291706   -152.48271   -1388.6708 
  162000    58.296058   -20108.853   -20067.627   -1866.2937   -1730.1646   -395.60321   -121.81068    136.23224   -129.39968   -1330.6872 
  163000    58.572106   -20108.986   -20067.565   -1555.8073   -1566.1291    293.67874    42.473379   -49.590856    133.29402   -942.75256 
  164000     58.61596   -20108.936   -20067.484   -1501.1368    -1750.625    287.52655   -47.083941   -176.34429   -86.845606   -988.07841 
  165000    58.367733    -20108.79   -20067.513   -1632.1147   -1752.5756   -13.415567    120.51154      -152.62    210.18453    -1132.702 
  166000    58.831205   -20109.041   -20067.436      -1445.6   -1623.4005     484.6467    98.467802   -157.98666    115.94068   -861.45125 
  167000    59.159209   -20109.329   -20067.493   -1486.4518   -1487.9984    521.77607   -62.425571    59.541934   -81.303075   -817.55807 
  168000     58.04857   -20108.511    -20067.46   -1934.9494   -1592.7285   -234.82263   -3.5500464    237.93806     21.43329   -1254.1668 
  169000    57.991134   -20108.416   -20067.406    -1483.131   -1278.7076    688.56204   -163.22147    128.39522   -211.71906   -691.09219 
  170000    58.012181   -20108.418   -20067.392   -1464.8479   -1368.1401    646.69006   -122.01051    116.59465   -152.82099   -728.76599 
  171000    58.644042   -20108.793   -20067.321   -1734.2564   -1782.8965    -282.0215    37.751045   -99.858047    49.613991   -1266.3915 
  172000    58.072121   -20108.324   -20067.256   -1472.1192   -1758.7516    193.98752   -6.1075547   -222.11416    10.521239   -1012.2944 
  173000    58.433131   -20108.609   -20067.286    -1558.593   -1685.3059    210.35031    180.31682   -162.37224    281.08361   -1011.1829 
  174000    58.500235    -20108.64    -20067.27   -1643.3155   -1945.7584   -350.62468      65.4369   -241.37912    95.207665   -1313.2328 
  175000    58.706172   -20108.719   -20067.203   -1868.0534   -1730.1138   -218.98243    3.7590312     61.64888   -32.606572   -1272.3832 
  176000     58.46354   -20108.483   -20067.138     -1728.62   -1460.3217    123.63428    12.614065    225.18473    2.7476661   -1021.7691 
  177000    58.832692   -20108.683   -20067.078   -2036.4592   -1799.5502   -659.57631   -115.86979    173.18317   -248.99473   -1498.5286 
  178000    58.953177    -20108.72   -20067.029   -1992.7264   -1683.5454   -483.79656   -83.784942    188.63563   -140.18093   -1386.6895 
  179000    59.200183   -20108.827   -20066.962   -1615.5422   -1701.0437    91.734021   -34.023211   -125.43144   -5.4734772   -1074.9506 
  180000    58.811124   -20108.505   -20066.915   -1582.0206   -1980.1285   -422.79423    21.255646    -220.6958    48.936209   -1328.3144 
  181000    58.554818   -20108.268   -20066.859   -1645.7487   -1914.4925   -224.31334    126.16505   -207.53225    207.19512   -1261.5182 
  182000    58.693455   -20108.311   -20066.804   -1463.0558   -1793.6833    200.71433    30.729307   -238.70487    70.763766   -1018.6749 
  183000    59.610806    -20108.88   -20066.724   -1714.6802   -1605.8495   -5.8610517    61.733985    26.473252    161.10465   -1108.7969 
  184000      59.1555   -20108.508   -20066.674    -1877.702   -1579.4891   -291.21323    3.2799134    224.83823   -69.088968   -1249.4681 
  185000    58.887071   -20108.261   -20066.617   -1556.2225   -1423.1399    468.42217    -133.7784     122.4742    -202.8164   -836.98008 
  186000    58.944735   -20108.258   -20066.573   -1605.3036   -1474.1136    245.61914   -34.859372    133.41111   -72.094788   -944.59937 
  187000    58.568942   -20107.922   -20066.503   -1581.7085   -1767.2622   -138.42556   -49.450276   -168.48137   -103.65392   -1162.4654 
  188000    58.682377   -20107.976   -20066.477   -1279.0957   -1640.6753    620.76133    6.9067785   -254.15891    64.342095   -766.33654 
  189000    58.651315   -20107.984   -20066.506   -1422.6543   -1566.0978     481.3021    112.37723   -151.78149    182.09914   -835.81665 
  190000    59.660645   -20108.613   -20066.422    -1563.647   -1786.2185   -76.848809    -13.08763   -139.51454   -13.722429   -1142.2381 
  191000    59.681107   -20108.572   -20066.367   -1716.2324   -1508.4659    215.53242    96.984573    161.25148    114.51469   -1003.0553 
  192000    59.408757   -20108.295   -20066.282   -1670.4566   -1388.9998    376.88936   -67.446391    206.13515   -41.720642   -894.18899 
  193000    58.797705   -20107.872   -20066.291    -1696.416   -1573.8829   -10.809214    -162.3914    75.894228   -144.66041   -1093.7027 
  194000    60.612617   -20109.111   -20066.247   -1781.2428   -1645.5724   -107.60298     83.37416    100.23749    50.214341   -1178.1394 
  195000    58.533687   -20107.541   -20066.147   -1444.5347   -1672.4135    206.71252   -88.096313   -224.25732   -49.370756   -970.07858 
  196000    58.994766   -20107.836   -20066.116   -1683.2423    -1995.533    -570.0028    103.69579   -223.74919    124.53959   -1416.2594 
  197000    59.495712   -20108.118   -20066.043   -1566.8868   -1746.0328   -46.515433    24.046059   -173.30116    134.79117   -1119.8117 
  198000    59.774563   -20108.293   -20066.022   -1420.9693   -1626.4686    281.98138    -20.03174   -54.998685    -54.60101   -921.81886 
  199000    60.107793   -20108.391   -20065.884   -2006.2583   -1742.3844   -674.42518    41.987623    182.09575    41.737774   -1474.3559 
  200000    59.837642    -20108.14   -20065.824   -1908.1192   -1758.1768   -569.31551   -41.231232    164.69312   -86.114466   -1411.8705 
  201000    59.313012   -20107.676   -20065.731   -1715.0567   -1547.3468     5.242552   -54.739162    110.19416   -100.54982   -1085.7203 
  202000    59.651528   -20107.836   -20065.651   -1598.1966   -1631.6904   -59.557137    26.146567   -48.330189    82.176049   -1096.4814 
  203000    59.420529   -20107.645   -20065.623   -1557.0894   -1955.0351   -422.33057    33.029803   -231.54146   -18.149939    -1311.485 
  204000    60.155059   -20108.102   -20065.561   -1424.2044   -1590.6726    277.70635    87.095493   -113.66354    146.57495   -912.39022 
  205000    59.512049   -20107.602   -20065.517   -1598.8812   -1698.2628   -38.299541    75.698544   -55.861037    146.95983   -1111.8145 
  206000    59.544077   -20107.582   -20065.474   -1835.0144   -1635.4439   -385.79771    19.306397    76.455318   -8.7792176   -1285.4187 
  207000    59.785437   -20107.686   -20065.407   -1503.9898   -1215.2974    710.66925   -51.016223    265.24848    -83.48273   -669.53934 
  208000     60.46143    -20108.08   -20065.323   -1561.5651   -1526.3769    307.74961   -133.02592    81.219462   -201.62077   -926.73077 
  209000    59.764244   -20107.532   -20065.268   -1797.6426   -1669.4732   -251.09258   -86.118958    68.146495   -153.15103   -1239.4028 
  210000    59.665165   -20107.443   -20065.249   -1396.9181   -1612.4439    305.59803    58.637536   -90.309439    35.641056   -901.25465 
  211000    59.365018   -20107.195   -20065.213   -1324.6062   -1610.6157    362.27325    65.452206   -214.70184    104.51435   -857.64954 
  212000    60.245818   -20107.672   -20065.067   -1729.6619   -1800.9888   -361.78615    143.95793   -63.938418    195.08847   -1297.4789 
  213000    59.990305   -20107.438   -20065.014   -1552.5246   -1474.6501    340.97902    37.309748   -13.528261    17.153694   -895.39858 
  214000    60.183901   -20107.499   -20064.938    -1587.364   -1251.6801    514.90231    -16.74724    251.85131   -16.157202   -774.71391 
  215000     60.85689   -20107.957   -20064.921   -2115.2561   -1727.1738    -822.7685   -99.599275    280.24814   -155.09518   -1555.0662 
  216000    60.119066   -20107.366   -20064.851   -1687.8782   -1454.2016    54.981204    -169.2428    119.14681    -242.8406   -1029.0328 
  217000    60.378513   -20107.514   -20064.816   -1589.5625   -1415.7521    263.40887   -9.2849554    85.843304    -32.57169    -913.9686 
  218000    60.176073   -20107.238   -20064.683   -1685.6794   -2093.4267   -652.56295   -29.218993   -316.50749    -71.65958    -1477.223 
  219000    60.752191   -20107.601   -20064.639   -1480.9156   -1843.6057   -70.529334    107.29068   -313.13733    162.10296   -1131.6835 
  220000    61.015991   -20107.634   -20064.484    -1541.989   -1628.1315     37.50406    168.21427   -51.994654    242.31569   -1044.2055 
  221000    60.728135   -20107.315   -20064.369   -1797.2424    -1791.945   -617.83066   0.71852958    2.9007045    4.3221329   -1402.3394 
  222000    59.918235   -20106.615   -20064.242   -1957.6719   -1469.0531   -317.36291    49.582433    452.03027     123.6305   -1248.0293 
  223000     61.61519   -20107.741   -20064.168   -1744.5722   -1378.3344    282.27662   -204.08931    287.84006   -270.18529   -946.87664 
  224000    62.033347   -20107.949    -20064.08   -1733.9112   -1682.7606    -164.1588   -217.79756    97.068244   -277.16741   -1193.6102 
  225000      60.8324   -20107.056   -20064.037   -1713.5369   -1706.3984   -294.96724    -43.10141    71.306191   -62.891655   -1238.3009 
  226000    60.339038   -20106.678   -20064.007   -1205.5868   -1730.9663    366.21904   -81.687396   -377.88992     -129.016   -856.77799 
  227000    61.040371   -20107.167       -20064   -1466.0781   -1818.0978    2.6915643    202.49614   -175.06512    250.17775   -1093.8281 
  228000    60.778822    -20106.93   -20063.949   -1586.5925   -1569.9004   -94.853519     143.2547    3.0498395    279.61992   -1083.7821 
  229000    60.643599   -20106.709   -20063.823   -1361.6782   -1409.3276    596.54324   -8.8691504    -82.00657   -36.060597   -724.82085 
  230000    61.171998   -20106.993   -20063.733   -1752.1841   -1265.1903    249.73456    86.261952    374.86468    123.70447   -922.54662 
  231000    61.158835   -20106.928   -20063.678   -1866.7685   -1594.9467   -312.69619   -151.24208    193.16728   -196.74584   -1258.1371 
  232000    62.438826   -20107.782   -20063.626   -1680.0062   -1577.6869    130.67946    -153.5214    73.818739   -211.59318   -1042.3379 
  233000    61.577184    -20107.14   -20063.593   -1336.1709   -1438.9317    574.18519   -6.5930656   -46.616414   -8.2947801   -733.63913 
  234000     60.59516   -20106.447   -20063.595   -1412.4491    -1861.347   -321.29351   -7.0659405   -298.79435   -52.087317   -1198.3632 
  235000    60.869513   -20106.601   -20063.555   -1320.9227   -1589.1976    437.62219     134.3933   -161.21982    224.24617   -824.16602 
  236000    61.311346   -20106.928    -20063.57   -1513.1081    -1602.034     112.8338    212.02974   -37.224339    257.84657   -1000.7694 
  237000    61.669345   -20107.115   -20063.503   -1903.6868   -1767.4657   -596.39664    125.64803    64.705668    123.15509   -1422.5164 
  238000    60.355011   -20106.177   -20063.495     -1890.22   -1315.4717    -97.54888    32.775618    450.37772    55.024628   -1101.0802 
  239000    61.600394   -20107.022   -20063.459   -1586.3169   -1314.1787    342.73614   -123.56958     227.8151    -236.7299   -852.58651 
  240000    61.197004   -20106.646   -20063.368   -1648.5048    -1753.043   -390.33234   -169.16147   -75.480944   -275.53288     -1263.96 
  241000    61.004871   -20106.425   -20063.283   -1758.6874   -1809.3334   -516.57483   -67.186193   -70.622967   -135.37103   -1361.5319 
  242000    60.900592   -20106.282   -20063.214   -1195.1225   -1696.8514    316.13732   -1.0757197   -379.67981    14.366242   -858.61218 
  243000    60.583899   -20105.996   -20063.153   -1610.8935   -1940.2668   -575.95424    183.69779   -184.29184    277.70111   -1375.7048 
  244000    61.411474    -20106.51   -20063.081   -1538.1214   -1684.1798    -91.84847    200.44447    -61.12676    333.20206   -1104.7166 
  245000    61.086289   -20106.263   -20063.064   -1469.9733   -1304.8231    443.89311    86.397939    135.38724    102.12894   -776.96778 
  246000     61.80785   -20106.786   -20063.076   -1835.9433   -1471.5171    -316.9116   -20.857323    327.01327   -5.6674164    -1208.124 
  247000    61.361397   -20106.412   -20063.018   -1687.5559    -1554.704   -224.51482   -185.97033    121.45613   -283.83946   -1155.5916 
  248000    61.584193   -20106.512   -20062.961   -1447.7496   -1380.1217    429.43478   -118.26747     33.99328   -188.47699   -799.47886 
  249000    60.826349   -20105.899   -20062.884   -1413.1508    -1634.384     120.8101   -29.442903   -185.93055    -35.35676   -975.57492 
  250000    61.825922   -20106.557   -20062.835   -1480.8001   -1733.3754   -121.06725    75.103291   -200.17858    83.969619   -1111.7476 
  251000    62.023613   -20106.593   -20062.731   -1291.0123   -1444.2527    472.71513    213.40045   -167.82951    306.93094   -754.18331 
  252000    61.322515    -20106.09   -20062.724   -1520.0188   -1634.5482    44.451394     168.2726     -25.8803    189.86835   -1036.7052 
  253000    61.919384   -20106.441   -20062.653   -1831.0988   -1647.0503   -376.17742     102.4676    246.28262     121.0525   -1284.7755 
  254000    61.841498   -20106.364   -20062.631   -1621.8925   -1183.0103    358.86855   -96.917566    289.17587   -132.39403   -815.34478 
  255000    61.124668   -20105.766    -20062.54   -1498.1373   -1382.1233    325.86822   -219.35954     41.22097    -338.0881   -851.46411 
  256000    62.269235   -20106.506    -20062.47   -1699.1175   -1719.5459   -469.71189   -125.75927   -51.713683    -163.8107   -1296.1251 
  257000    61.861423   -20106.176   -20062.428    -1351.853   -1721.6853    18.592795   -34.927918    -313.5332   -170.07978   -1018.3152 
  258000     62.77096   -20106.865   -20062.474   -1421.1184   -1618.0216    270.15503    152.02091   -182.67805    241.22865   -922.99498 
  259000     62.53168   -20106.622   -20062.401   -1714.1088   -1690.4183    -401.7599     273.9864    16.093279    375.96627   -1268.7623 
  260000    62.961767    -20106.93   -20062.404   -1607.3069   -1508.1125    70.107733    58.740483    89.480114    94.990512   -1015.1039 
  261000    61.590073   -20105.916    -20062.36   -1588.7405   -1184.2773    327.04157    129.35576    217.76831    115.31463    -815.3254 
  262000    62.038355   -20106.219   -20062.347   -1971.6494   -1691.4405   -779.74808   -154.53562    158.54993   -268.07406    -1480.946 
  263000    62.332717   -20106.432   -20062.352    -1671.649   -1591.5439   -168.09846   -179.36014    45.611565   -335.50582   -1143.7638 
  264000    61.826557   -20106.082   -20062.359   -1514.1594   -1489.9094    125.20537   -7.1664495   -42.739131   -42.274868   -959.62113 
  265000    61.820365   -20106.001   -20062.283    -1395.544   -1824.9766   -257.13917   -124.64626   -385.17544   -166.96791   -1159.2199 
  266000    62.104273   -20106.124   -20062.205   -1532.1095    -1743.171    -297.4065    258.32519   -127.35186    419.24705   -1190.8957 
  267000    62.289261   -20106.215   -20062.165   -1476.9048   -1417.3337    289.63551    204.17819   -42.827861    257.77432     -868.201 
  268000    61.833112   -20105.822   -20062.095   -1702.8576   -1524.0396   -203.98025    82.969477    24.740773    69.468221   -1143.6258 
  269000    62.355331   -20106.059   -20061.963   -1875.3887   -1274.3873   -119.88099    86.765653    392.11038    171.61126   -1089.8856 
  270000    63.171741   -20106.653   -20061.979   -1374.5329   -1171.3528    689.34296   -322.87022    145.33225   -462.65865   -618.84759 
  271000    62.652022   -20106.197   -20061.891   -1429.4766    -1559.468     147.7303   -207.82177   -138.23306   -273.84776   -947.07145 
  272000    62.833728    -20106.28   -20061.845   -1483.7109   -1532.0934    7.7115727    37.542566   -22.531509   -15.184175   -1002.6976 
  273000    62.227285   -20105.747   -20061.741   -1127.4262   -1560.5223     471.8993    -4.015818   -400.06314   -30.030305   -738.68308 
  274000    61.992908   -20105.543   -20061.703   -1427.0193   -1441.5613     317.3628    274.32395   -21.981663    487.30302   -850.40591 
  275000    61.969459   -20105.512   -20061.688   -1592.1241    -1393.062    33.756791    118.57055    50.983878    248.13553   -983.80977 
  276000    62.250011   -20105.625   -20061.603   -1524.6881   -1379.0576    142.37014    68.009145    149.79841    30.444061   -920.45854 
  277000    62.722377   -20105.973   -20061.617   -1793.5348   -1285.9249    10.565657   -56.550864    311.95159   -82.532048   -1022.9647 
  278000    62.451102   -20105.755    -20061.59   -1761.6012   -1697.3301   -578.44447   -318.27229    37.139293   -513.88419   -1345.7919 
  279000    62.162964   -20105.438   -20061.477   -1515.6509   -1635.2245   -116.59691   -119.90973   -106.84898   -206.88361   -1089.1574 
  280000    62.383435   -20105.556    -20061.44   -1339.6937   -1581.1714    190.42074   -10.645067    -175.2175   -45.259301   -910.14812 
  281000    63.002585   -20105.952   -20061.398   -1593.1738   -2022.4376   -749.39193    152.76914   -354.74373     168.4117   -1455.0011 
  282000    62.995242   -20105.904   -20061.355   -1583.4759   -1467.2425    65.687288    311.27818     24.33066    459.85274   -995.01036 
  283000    63.004635   -20105.868   -20061.312    -1701.066   -1482.6997   -83.083985    171.13938    130.34523    199.67058   -1088.9499 
  284000    62.132228   -20105.262   -20061.324   -1736.1928   -1441.9056   -148.62149   -34.149881    218.19505   -25.007041   -1108.9066 
  285000    63.701658   -20106.355   -20061.306    -1809.279   -1374.4888   -77.874299   -112.28262    329.54818   -248.85413    -1087.214 
  286000    63.353391   -20106.035   -20061.233   -1465.8433   -1424.7179    187.59063   -296.32137   -6.1512399    -415.9567    -900.9902 
  287000    62.135187   -20105.159   -20061.218   -1441.9291   -1607.6194   -59.542619   -128.76124   -149.05386   -167.27659   -1036.3637 
  288000    62.305064   -20105.249   -20061.188   -1472.3633   -1747.9346   -251.44342   -14.450769   -281.77831    -56.50855   -1157.2471 
  289000    63.758485   -20106.167   -20061.078   -1056.9094   -1571.6022    558.48173     149.2971   -346.58606    195.61054   -690.00996 
  290000    62.667268   -20105.318   -20061.001   -1579.3363   -1535.4068   -114.87486    232.76021    31.311436    344.33725   -1076.5393 
  291000    62.792081   -20105.388   -20060.983   -1729.8482   -1437.4837   -160.85987    86.281053    198.18745    168.75987   -1109.3972 
  292000    64.042396   -20106.267   -20060.978   -1608.9052   -1242.3472    462.01672   -51.145784    271.45002   -72.561423   -796.41191 
  293000     63.11286   -20105.611   -20060.978   -1689.3092   -1381.1021    100.39854   -245.39499    247.47386   -242.54747   -990.00426 
  294000    62.784679   -20105.268   -20060.868   -1465.7031   -1516.9241   -50.955658   -278.73812   -104.90075   -405.13205   -1011.1943 
  295000    63.400097   -20105.674   -20060.838   -1330.0833   -1519.1988    189.11837   -159.82231   -159.35343    -140.9766   -886.72125 
  296000    63.869616    -20106.01   -20060.843   -1243.5628   -1655.5127    145.92977   0.21816828    -361.4671   -41.531179   -917.71522 
  297000    63.147884   -20105.477    -20060.82   -1440.7195   -1820.5955   -458.62194    249.63461   -283.03727    326.52047    -1239.979 
  298000    62.190651   -20104.754   -20060.774   -1473.1476   -1304.0256    314.60122    250.27782    95.401555    352.81489   -820.85733 
  299000    62.848348   -20105.163   -20060.718   -1573.6084    -1311.088    154.24792    90.036584    156.58973    112.58334   -910.14948 
  300000    63.736981   -20105.707   -20060.633    -2034.602   -1520.6012   -727.24713   -61.305891    442.98694   -86.563365   -1427.4835 
  301000      63.5021   -20105.472   -20060.565   -1654.1191   -1349.5141    99.043251   -279.43279    246.06295    -396.9174   -968.19665 
  302000    62.783516   -20104.976   -20060.577   -1440.0303   -1526.3233    7.6332745   -218.37148   -78.897369   -302.16558   -986.24012 
  303000    62.775476   -20104.936   -20060.542   -1525.2565   -1661.7364   -240.90215   -51.033512   -88.862408   -66.307972   -1142.6317 
  304000     63.00002   -20105.087   -20060.535   -1291.9585   -1807.7257   -110.43394    19.493096   -412.13267    35.021673   -1070.0394 
  305000    64.339023   -20105.873   -20060.374   -1396.4053   -1488.0943    192.61379    262.60757   -67.333582    367.66101   -897.29527 
  306000    64.311165   -20105.777   -20060.298   -1628.0454   -1506.8982   -137.70423    211.91167    138.30418    274.55485   -1090.8826 
  307000    63.077029   -20104.801   -20060.194     -1698.52   -1347.2578   -32.964512    28.223104    275.93361    83.678554   -1026.2474 
  308000    63.634232   -20105.141    -20060.14   -1548.7658   -1070.5403    555.81146    37.470918    422.08208    30.301034   -687.83157 
  309000    64.531602   -20105.735   -20060.099   -1729.2225   -1610.6715    -318.7159   -399.95255    86.461526   -590.89746   -1219.5366 
  310000    63.293471    -20104.86     -20060.1   -1392.3846   -1594.8538    56.480188    -199.9606   -136.76723   -263.02893   -976.91939 
  311000    64.216891   -20105.502   -20060.089    -1099.202   -1438.4649     618.5962   -129.38611   -332.11989   -152.78975   -639.69023 
  312000    62.831756   -20104.472   -20060.039     -1147.86   -1682.7394    100.74251    23.530481   -357.29486    8.0161206   -909.95229 
  313000    62.999863   -20104.572   -20060.019   -1516.7149   -1403.7019   -44.442478    383.16767     59.67329    686.39285   -988.28642 
  314000    63.199972    -20104.62   -20059.926   -1496.2078   -1143.7294    298.42843    154.37042     253.4457    223.63668   -780.50289 
  315000     64.13461   -20105.268   -20059.913   -1702.3886   -1175.4128    79.956041    58.477821    369.38855    102.71114   -932.61512 
  316000    64.389593   -20105.397   -20059.862   -1957.1922   -1292.3202   -436.18436    -57.99851    460.73475   -66.246487   -1228.5656 
  317000    63.052804   -20104.381   -20059.791   -1306.7983   -1269.3183    496.74855    -374.8108   -53.721322   -589.67744    -693.1227 
  318000    63.975054   -20104.983   -20059.741   -1287.3483   -1533.8342     141.5326   -126.89025    -218.5871   -137.09417   -893.21663 
  319000    63.675393    -20104.66    -20059.63   -1555.5139   -1958.8055   -778.71593   -25.350951   -366.14536   -70.691479   -1431.0118 
  320000     64.32047   -20105.079   -20059.593   -1156.6209   -1549.2865    390.69589    85.478122   -368.84749    107.27859   -771.73716 
  321000    63.297493   -20104.317   -20059.554   -1548.1465   -1375.5015   -25.560567    389.67356    136.44996     633.5383   -983.06952 
  322000     64.11724   -20104.854   -20059.511   -1881.3121   -1464.1533   -438.70713    126.50635    260.26928    160.16214   -1261.3908 
  323000    64.638694   -20105.234   -20059.523   -1785.1415   -1142.3048    13.935304    66.174728    405.19198    64.662842   -971.17035 
  324000    64.246203   -20104.955   -20059.521   -1705.5563    -1153.703    204.46433   -49.106904    356.54543   -133.57606   -884.93165 
  325000     63.94956   -20104.725   -20059.501   -1481.0876   -1643.6074   -302.33965   -313.01036   -208.36075   -516.20974   -1142.3449 
  326000    63.423849   -20104.276   -20059.424   -1379.0978   -1662.8974   -233.26643   -107.21621   -292.04912   -115.07692   -1091.7539 
  327000    64.519276   -20105.034   -20059.407   -896.56057   -1502.0785    747.53905   -81.053416   -489.63096   -60.906024   -550.36669 
  328000    64.449227    -20104.93   -20059.353   -1481.9589   -1868.4072   -594.82545    195.40153   -357.33827    241.94208   -1315.0639 
  329000    63.212724   -20103.994   -20059.291   -1589.5241   -1327.5609    53.426327    323.54812     105.3407     459.9968   -954.55289 
  330000    64.649698   -20104.976   -20059.257   -1412.2732   -1144.9116    598.08804    144.66364    232.41074    210.05404   -653.03223 
  331000    64.949045   -20105.153   -20059.222   -1987.8102   -1203.4787   -375.29762    87.230875     590.5013    34.342041   -1188.8622 
  332000    63.665252   -20104.229   -20059.206   -1722.3616   -1284.5032   -158.55591   -255.08045    263.04322   -344.55793   -1055.1402 
  333000    64.825665   -20104.971   -20059.127   -1145.6709   -1418.6205    528.84047   -296.08197   -184.87187   -455.21247   -678.48363 
  334000    64.878084   -20105.006   -20059.126   -1249.5176    -1515.935    87.259905    -77.51309    -270.9989   -189.19219   -892.73088 
  335000    64.420747   -20104.571   -20059.013   -1294.8549   -1975.4734   -554.96185    21.775948    -550.5315    56.111402   -1275.0967 
  336000    64.170843   -20104.413   -20059.032   -1111.0713   -1216.2841    728.71486    214.73038   -138.77428    356.07416   -532.88019 
  337000    64.245586   -20104.424   -20058.991   -1589.8735   -1251.3864   -108.98137    251.42047     270.5484    427.82387   -983.41374 
  338000     64.59736   -20104.624   -20058.941   -1916.7171   -1418.0588   -717.79871    83.246245     351.2753     107.6919   -1350.8582 
  339000    63.854184   -20103.939   -20058.782   -1564.2991   -839.49147    578.97016   -43.014725      522.419   -128.29276   -608.27347 
  340000    65.589171   -20105.088   -20058.705   -1654.5246   -1447.6764   -77.941359   -274.29044    121.27711   -451.99694   -1060.0475 
  341000    64.909585   -20104.574   -20058.671   -1457.9251   -1737.6562   -495.38012   -209.18708   -208.39831   -356.11652   -1230.3205 
  342000    64.527204   -20104.238   -20058.606   -1257.1996   -1679.4601   -34.102487   -56.258696   -342.88521   -124.75412   -990.25404 
  343000    64.731338   -20104.308   -20058.531   -1113.4983   -1757.0428   -27.694125    26.780283   -588.77504    92.282888   -966.07841 
  344000    64.389226   -20104.044   -20058.509   -1609.9348   -1744.1415   -642.66627    322.40419   -101.32179      487.205   -1332.2475 
  345000    65.348376   -20104.752   -20058.539   -1623.9907   -1290.3322   -49.008968    267.45586     220.6856    340.55518   -987.77729 
  346000    64.312962   -20103.958   -20058.477   -1532.5578   -885.07007    474.80546    79.726614    422.49683    129.04771   -647.60745 
  347000    64.520406   -20104.064   -20058.436   -2057.9165   -1282.9019   -642.50662   -74.873849    550.57902   -123.15217    -1327.775 
  348000    64.614373    -20104.05   -20058.356   -1399.2739   -1291.0296    129.86167   -377.96747     5.408252   -560.80396   -853.48061 
  349000    65.182754   -20104.444   -20058.348   -1212.1963   -1542.0372   -1.4437198   -220.04786   -321.80196   -291.39741   -918.55907 
  350000    65.151342   -20104.339   -20058.265    -1258.214   -1787.7205   -324.50073    -20.56543   -407.17788   -45.186442   -1123.4784 
  351000    65.205428   -20104.307   -20058.195   -1111.5232   -1744.2404   -127.01032    104.60352   -539.20998    153.99538   -994.25798 
  352000    65.119903    -20104.13   -20058.078   -1400.1965   -1207.8133    330.22653    357.31478    53.950799    568.06893   -759.26108 
  353000    65.300561    -20104.21    -20058.03   -1660.6024   -1298.0606   -121.46655    184.58974    224.72956    214.67784   -1026.7099 
  354000    63.911556   -20103.143   -20057.945   -1859.7792   -1335.5702   -472.97939    24.173075    330.25481   -47.806399   -1222.7762 
  355000    65.261013   -20104.065   -20057.913   -1412.2504   -837.77508    867.77327   -57.028084    428.13688   -129.21818   -460.75074 
  356000    64.028435   -20103.129   -20057.849   -1365.8424   -1502.8821    14.010351   -341.34852   -98.644104     -566.379   -951.57138 
  357000    64.686478   -20103.547   -20057.802   -1224.4347   -1453.6864    38.466207   -119.42527   -263.83471   -208.58329   -879.88497 
  358000    65.911048   -20104.369   -20057.757   -1022.3578     -1577.14     453.6145    49.613645   -483.33445    69.254274   -715.29444 
  359000    64.831625   -20103.585   -20057.737   -1209.7398    -1747.822    -59.11844     123.4614   -433.28228    193.97063   -1005.5601 
  360000    64.929363    -20103.52   -20057.603   -1464.9695   -1308.8915    27.850175    307.27636    154.84605    445.93318   -915.33693 
  361000    65.196171   -20103.624   -20057.518   -1546.4776   -1161.4186    204.37004    74.768578    263.13723    147.99928   -834.50873 
  362000    66.275285   -20104.276   -20057.407   -1706.2148    -1059.041    289.86526    6.4357947    545.90726   -16.543771   -825.13017 
  363000    64.698352   -20103.138   -20057.385    -1815.898   -1438.8443   -721.98683   -125.95108    212.13751   -274.93601   -1325.5764 
  364000    65.629482   -20103.758   -20057.346   -1266.8143   -1535.9986     111.4245   -287.81451   -180.11936   -403.50629   -897.12947 
  365000    65.625114   -20103.702   -20057.293   -1245.1866    -1616.053    75.104382   -140.00589   -329.39999   -137.60823   -928.71175 
  366000    64.776917   -20103.081   -20057.272   -1345.3326   -1979.9318    -771.1717 -0.033144603   -542.51942    20.874834   -1365.4787 
  367000    65.765367   -20103.778    -20057.27   -1281.2035   -1549.0422    92.031783    159.09243   -226.10137    244.78933   -912.73796 
  368000    65.830348   -20103.728   -20057.174    -1629.238   -1180.8156     54.00813    243.30968    238.04345     380.8473   -918.68181 
  369000    66.263453   -20104.003   -20057.143   -1814.6671   -1309.3017   -319.69779    37.411507    301.08132    95.690195   -1147.8889 
  370000    66.371413   -20103.954   -20057.017   -1853.9134   -1085.1038   -159.06735   -108.39968    560.88971   -96.086093   -1032.6949 
  371000    65.935392   -20103.614   -20056.985   -1345.3277   -1188.4752    443.55603   -284.57368    144.80374   -354.93799   -696.74895 
  372000    65.760345   -20103.452   -20056.948   -1321.4935   -1695.8331   -204.22268   -238.92835   -321.84291   -307.53259   -1073.8498 
  373000    66.302798   -20103.785   -20056.897   -1205.6669   -1693.3253    -21.15738    7.5009228   -396.90797   -10.630227   -973.38319 
  374000    66.836515   -20104.148   -20056.882     -830.006   -1534.4733    745.91832    111.17862   -474.89989     155.6624   -539.52033 
  375000     65.71118    -20103.32    -20056.85   -1493.7263   -1488.9677   -289.89293    248.41141   -81.871547    392.05309   -1090.8623 
  376000    66.139408   -20103.576   -20056.803   -1621.0652   -1263.8959   -3.6099797    134.64213    292.29883    231.53264   -962.85704 
  377000    65.307688   -20102.952   -20056.768   -1503.6617   -1028.0579     517.6597   -23.395717    306.29132    13.631655   -671.35331 
  378000    65.925818   -20103.369   -20056.747   -1709.7833   -1098.7708    48.277755   -196.36976    481.88594   -277.18363   -920.09213 
  379000    66.252918   -20103.539   -20056.686   -1493.5169    -1358.731   -23.830423   -346.76646    63.863095   -440.92244   -958.69277 
  380000      66.1405   -20103.407   -20056.633   -1258.1549   -1514.5147    228.21991   -136.82563    -269.1108   -204.13854   -848.14988 
  381000    67.613642   -20104.391   -20056.576   -1239.4755   -1626.1484   -38.682846   -28.324639   -271.72652    20.137687   -968.10224 
  382000    65.257507   -20102.661   -20056.512   -1163.4552    -1779.892    -202.4913    158.78179   -501.77016    250.89667   -1048.6128 
  383000    66.027015   -20103.169   -20056.476   -1358.5932   -1203.4028    229.95524    300.62153    48.568282    475.89691   -777.34694 
  384000    66.202312   -20103.248   -20056.431   -1637.5948   -1193.0032   -12.468953    43.707002    296.18809    108.54673   -947.68901 
  385000    65.898616   -20103.011   -20056.409   -1845.4101   -1351.0056   -540.40422    16.113957    422.43511   -50.582202   -1245.6066 
  386000     65.94155   -20103.027   -20056.394   -1694.9898   -1128.2636   -130.07856   -149.22813    446.90372   -207.55308   -984.44397 
  387000    66.476584   -20103.309   -20056.298     -1351.75    -1499.349   -90.205517   -387.24772   -139.09298   -517.34451   -980.43484 
  388000    66.324326   -20103.186   -20056.283   -1427.3272   -1639.8436   -314.99051    15.227038   -232.51361    57.686067   -1127.3871 
  389000    65.554746   -20102.589    -20056.23   -1208.7436   -1780.0077    -255.6211   -8.8547964   -422.66421    75.552402   -1081.4575 
  390000    65.991556   -20102.869   -20056.201   -1185.9926   -1602.3494    73.431905    169.67229   -292.28256    240.68335   -904.97002 
  391000    66.636638   -20103.257   -20056.132   -1741.8336   -1433.0058    -356.2311    344.48843    213.05466    554.03281   -1177.0235 
  392000    66.126128   -20102.824   -20056.061   -1579.6351   -1230.5821   -71.767719   -23.301879    292.52532     1.500894   -960.66165 
  393000    66.310231   -20102.969   -20056.076     -1458.65   -925.71334    637.39787   -60.930346    400.66898    -47.76885   -582.32182 
  394000    65.731798    -20102.46   -20055.975    -1659.675   -1123.3727   -35.003703   -133.48652    340.85238   -281.26709   -939.35048 
  395000    67.036837   -20103.279   -20055.872   -1382.0865   -1597.2777   -126.55882   -394.51581   -228.87125   -542.52143   -1035.3077 
  396000    66.830491   -20103.037   -20055.775   -972.92915   -1316.3034    535.15565    8.5044764   -224.57646    35.329791   -584.69229 
  397000    66.562879   -20102.846   -20055.774   -1122.1423   -1684.3314   -81.896363    103.08006   -405.47914    32.060485   -962.79002 
  398000     67.02407   -20103.129   -20055.731   -1213.4511   -1518.9707     20.91364    176.84986    -265.2027    268.46637   -903.83606 
  399000    66.961307   -20103.012   -20055.658   -1402.2132   -1085.9784    442.48702    387.35017    228.00761    592.76075   -681.90151 
  400000    65.246713   -20101.752    -20055.61    -1493.926      -1261.8    103.03255   -29.588308    228.29635   -83.538624   -884.23117 
  401000      66.5014   -20102.598    -20055.57   -1857.7888   -1239.7547   -403.13736   -72.701438    381.19455   -88.391296   -1166.8936 
  402000      67.4544    -20103.29   -20055.588   -1517.9404   -1186.7841    119.43436   -157.03087    225.39172   -313.62189   -861.76337 
  403000    66.029756    -20102.21   -20055.515   -1176.5794   -1391.8853    67.492748   -369.63807   -184.45833   -534.36505   -833.65733 
  404000    66.612994   -20102.562   -20055.454   -1541.3119   -1679.2158   -581.92776    10.004431   -162.33102    50.529378   -1267.4852 
  405000    66.962415   -20102.724   -20055.369   -1052.0828   -1643.9621    128.86855    116.28688   -440.60277    139.69378   -855.72544 
  406000    67.171008   -20102.839   -20055.337   -1262.5598   -1545.1762    171.71862    133.02524   -222.89016    289.46423   -878.67247 
  407000    66.628242     -20102.4   -20055.281   -1754.0937   -1393.7547   -581.38645     289.5627     203.3865    451.15568   -1243.0783 
  408000    66.659214   -20102.461    -20055.32   -1495.2759   -1203.9806    3.8092535   -92.355031    140.24942   -88.984653   -898.48244 
  409000    66.525231    -20102.32   -20055.275   -1563.2193   -1015.2334    233.06274   -202.11252    482.72067   -309.61375   -781.79668 
  410000    67.378138   -20102.904   -20055.255   -1540.1299   -1412.7486   -401.03728   -192.50204    138.76447   -252.15677    -1117.972 
  411000    67.554706   -20103.032   -20055.259   -1204.0062   -1592.7208   -14.745106   -173.08333   -297.93879     -244.255   -937.15736 
  412000    67.579496   -20103.066   -20055.275   -987.73457    -1249.209    668.39102    74.655732   -184.71876    86.352301   -522.85087 
  413000    68.018526   -20103.312   -20055.211   -1342.3812   -1852.8226   -371.31176    184.48478   -315.71254    331.74407   -1188.8385 
  414000    66.944105   -20102.486   -20055.145   -1408.7615   -1476.7215   -207.24906    215.25611   -2.5461404    350.77282   -1030.9107 
  415000    66.186081   -20101.944   -20055.138    -1099.592   -840.18656    974.92317    131.40022    229.99753    213.00905   -321.61848 
  416000     66.95949   -20102.397   -20055.045   -1397.4983   -1269.0087    178.16553   -83.296016    121.67853   -94.274859   -829.44718 
  417000    66.758998   -20102.091    -20054.88   -1732.2878   -1199.7661   -286.52465   -222.49745    449.19394   -346.91766   -1072.8595 
  418000    67.623494   -20102.626   -20054.804   -1083.1074   -1302.1687    520.33586   -277.46368   -135.31562   -373.87569   -621.64674 
  419000    68.466895    -20103.13   -20054.711   -1249.5297   -1463.1554   -8.4309616    -58.88131     -133.927   -82.183212    -907.0387 
  420000    67.691492   -20102.587   -20054.717   -1316.6343   -1655.0054   -342.83349    71.195173   -258.63543    128.79693   -1104.8244 
  421000    66.805377   -20101.955   -20054.711   -710.95958   -1397.6664    617.75921    251.97193   -434.24138    422.96909    -496.9556 
  422000    67.029477   -20102.094   -20054.692   -1408.2584   -1256.1743    82.837803    256.56252    156.67921     403.8247   -860.53163 
  423000     68.63007   -20103.153   -20054.619   -1793.2247   -1656.2255   -1079.1396    44.204692    114.84264    66.299906     -1509.53 
  424000     67.99467   -20102.636   -20054.551   -1505.3557   -1116.7224    211.77035   -101.31406    261.46762   -102.60257   -803.43593 
  425000    67.839289   -20102.485    -20054.51   -1486.8809   -1125.6984    129.14143    -240.0951    263.19294   -405.66242    -827.8126 
  426000    66.964548   -20101.897   -20054.541   -1482.6178    -1713.312   -655.89965   -252.29615   -219.20407   -412.48772   -1283.9432 
  427000    67.542036   -20102.243   -20054.479   -1257.5674   -1314.0847   -39.548468    41.432033   -128.97021    97.915442   -870.40016 
  428000    67.723334    -20102.28   -20054.387   -1079.6304   -1574.3485   -36.603933    115.53016   -328.09741    252.61784   -896.86093 
  429000      67.0605   -20101.754   -20054.331   -1458.8142   -1742.7978   -783.55537    240.35769   -270.22097    374.01854   -1328.3891 
  430000    68.086633   -20102.402   -20054.253   -1633.1025    -1257.256   -227.78624    310.46586     297.7616    447.97474   -1039.3816 
  431000    66.569012   -20101.307    -20054.23   -1082.7821   -898.64252    851.42111   -180.20121    117.40549   -274.36209   -376.66785 
  432000    67.067348   -20101.638   -20054.209   -1845.5265   -1091.5788   -426.44715   -177.70667    531.53067   -212.81025   -1121.1841 
  433000    67.662116   -20102.007   -20054.158   -1573.6441   -1075.8359   -28.251963    -199.0332    278.45871   -360.25101    -892.5773 
  434000    66.903004   -20101.402   -20054.089   -908.53309    -1205.794    633.94109   -227.36535   -241.82022   -460.57655   -493.46198 
  435000    68.418067   -20102.436   -20054.052   -1425.1811   -1404.1898   -202.28669    190.10207   -58.100314    347.44129   -1010.5525 
  436000    67.837995    -20101.96   -20053.986   -778.34846   -1570.6935    319.39255    214.19271   -579.41085    363.96647   -676.54979 
  437000     68.65049   -20102.453   -20053.904   -888.44669   -1149.5577    826.02869    297.72698   -237.31803    391.36243   -403.99191 
  438000    68.273112   -20102.105   -20053.824   -1435.1881   -1190.9566    74.555933    292.36762    193.42935    446.34854   -850.52959 
  439000    68.223068   -20101.999   -20053.753   -1644.1856    -1483.816   -579.25516   -225.85712    151.65567   -342.31242   -1235.7523 
  440000    68.376098   -20101.989   -20053.635   -1465.9868   -684.50785    724.03872   -245.10985    603.69563    -373.0961   -475.48529 
  441000    68.530076   -20102.069   -20053.606   -1443.6029   -1176.2843    7.7805655   -288.40715    182.90388   -397.18258   -870.70221 
  442000    68.952221   -20102.309   -20053.548   -1388.2386   -1674.4385   -509.34373   -255.09978   -174.94112   -410.73389   -1190.6736 
  443000    68.747417     -20102.1   -20053.483   -1119.5183   -1266.4589    420.21156    249.58819    -108.8269    368.48343    -655.2552 
  444000    68.805638   -20102.094   -20053.436   -1085.6476   -1857.2743   -391.79136    192.17236   -606.87065    275.03256   -1111.5711 
  445000     68.21738   -20101.595   -20053.353   -1421.8792   -1764.4321    -804.0103    331.76027   -147.20575    470.46868   -1330.1072 
  446000    68.047354   -20101.388   -20053.266   -1378.9719   -968.08796    119.45692    140.38925    298.70281    313.59922    -742.5343 
  447000    68.392459   -20101.579   -20053.213   -1299.4527   -1027.2637     206.6633   -205.21185    185.90293   -398.35393   -706.68438 
  448000    68.057388   -20101.306   -20053.177   -1736.9633   -1076.0781   -300.76872   -183.24453    515.00489   -256.90175   -1037.9367 
  449000    68.489075   -20101.564    -20053.13   -1374.8146   -1312.6506    15.193603   -328.83027    43.630052   -507.69026   -890.75719 
  450000    68.014556   -20101.143   -20053.044   -999.13673   -1274.3206    374.37241   -212.72941   -296.65014   -294.58771   -633.02829 
  451000    68.075129   -20101.173   -20053.031   -1226.2638   -1602.0848   -127.79066     164.0806   -305.92885    283.89496   -985.37975 
  452000     68.76335   -20101.584   -20052.955   -914.99919   -1582.0675    123.70132    220.27664   -480.33345    317.18722   -791.12178 
  453000     69.02998   -20101.754   -20052.937    -1054.334   -1240.6238    639.48121    333.87443   -110.06432    541.83237   -551.82552 
  454000    68.843692   -20101.545    -20052.86   -1502.4177    -1298.878   -283.29919    138.73939    195.79837     245.7163   -1028.1983 
  455000    69.430628   -20101.846   -20052.746    -1656.344    -1152.414    -292.4739   -234.28741    360.44362   -283.46497   -1033.7439 
  456000    69.011516    -20101.45   -20052.647   -1395.5886   -771.97992    624.65905   -173.29811    482.46117   -322.38999   -514.30315 
  457000    68.781233   -20101.243   -20052.602   -1129.0211   -1225.6169    408.69887   -394.62937    -55.62673   -482.86212   -648.64639 
  458000    69.459488   -20101.682   -20052.562   -1363.0477   -1540.5805   -457.99919   -31.142029   -132.00015   -85.378055   -1120.5425 
  459000    68.829367   -20101.216   -20052.541   -863.46213   -1365.2346    505.48858    178.05873   -456.00629    234.59022   -574.40271 
  460000    68.470985   -20100.896   -20052.474   -1061.7602   -1570.5576    -106.6904    208.09214   -371.45687    336.86534   -913.00274 
  461000     68.88963   -20101.122   -20052.404   -1449.1737   -1407.6447   -266.85365    336.25795   -19.959815    517.08706    -1041.224 
  462000    69.142428   -20101.305   -20052.409   -1316.9759    -1094.578    307.99283   -20.278356    133.40972   -73.006622   -701.18703 
  463000    69.958525    -20101.84   -20052.366   -1616.1116   -1127.8873   -125.52176   -8.0908813    369.62069   -144.63345   -956.50689 
  464000    68.981083   -20101.126   -20052.344   -1717.7956   -1308.1374   -601.11234   -198.36352    272.99609   -283.53826   -1209.0151 
  465000    68.735235   -20100.886   -20052.278   -1287.5537   -1401.9001   -269.62948   -325.11202   -59.778499   -520.85163   -986.36108 
  466000    68.917701   -20100.997    -20052.26   -1205.3639   -1357.9724   -37.785344     139.6983   -151.79725    125.47591   -867.04054 
  467000    68.965419   -20101.064   -20052.293   -1254.6662   -1837.8663   -597.73306     106.6495   -456.61491    110.41501   -1230.0885 
  468000    69.372974   -20101.327   -20052.268   -1108.5463   -1563.0862     14.62045     153.6513   -297.26802    266.23812   -885.67069 
  469000    68.372606   -20100.538   -20052.186   -1180.6291   -1111.9188    409.45046    318.76329    114.89953    526.27239   -627.69916 
  470000    70.115056   -20101.757   -20052.173   -1611.0738   -1427.7644    -620.8304   -172.90083    183.31907   -260.94483   -1219.8895 
  471000    69.770962   -20101.505   -20052.165   -1576.4228   -1006.2152    268.74831   -80.150233    460.15058   -120.31802   -771.29657 
  472000    69.255112   -20101.072   -20052.096   -1289.7722    -924.9836    581.18285   -239.16029    288.37088   -388.21649   -544.52431 
  473000    69.218165   -20101.035   -20052.085   -1367.7283   -1423.5159   -336.71128   -270.44517   -8.4536336   -382.21455   -1042.6518 
  474000    69.817903   -20101.349   -20051.975   -1080.1264   -1361.7506    231.26281    209.62056   -176.92671     286.8248    -736.8714 
  475000    69.353379   -20101.007   -20051.961    -783.6171   -1398.3107    496.63269    132.61919   -487.40982    91.753564   -561.76505 
  476000    68.068948   -20100.046   -20051.909   -1257.9094   -1523.9051   -342.27811    151.51484   -205.57441    295.61334   -1041.3642 
  477000    69.484524   -20100.994   -20051.856   -1357.0463   -1269.0703   -53.908942    214.89627    57.987485    214.74309   -893.34183 
  478000    70.242162   -20101.489   -20051.815   -1235.2499   -1039.1872    501.38771   -224.51368    191.87368     -295.825   -591.01645 
  479000    69.670595   -20100.986   -20051.716   -1741.7415   -1080.7903   -178.63939   -45.966936    506.44592   -123.01277   -1000.3904 
  480000    70.033541   -20101.231   -20051.704   -1549.8973   -1185.4682   -80.370953   -247.25342    214.82493   -366.95527   -938.57881 
  481000    70.031626   -20101.181   -20051.656   -997.12213   -1271.4106    362.25674   -194.66017   -164.08077   -250.39027   -635.42534 
  482000    69.626215   -20100.837   -20051.598   -1263.3603   -1479.3086   -276.67245    125.79783   -136.36431    275.23586   -1006.4471 
  483000    69.385902   -20100.531   -20051.463    -1070.089   -1695.4364   -313.23615    43.018047   -393.92188    136.12487   -1026.2538 
  484000    69.752404    -20100.69   -20051.362   -1045.7084    -1265.208    236.42632    258.62067   -167.57729    388.60757   -691.49669 
  485000    70.348652   -20101.092   -20051.343   -1405.6524    -1184.865    138.07318    74.889396    143.86958    163.82923   -817.48139 
  486000    69.517821   -20100.525   -20051.363   -1476.7472   -1331.3334   -502.31268   -177.68926    128.22519   -308.30128   -1103.4644 
  487000    70.124134    -20100.84   -20051.249   -1481.9799   -1052.1066    124.89787    4.7919562    332.16921   -39.254758   -803.06288 
  488000    70.204479   -20100.843   -20051.196   -1224.5561   -1280.1819    82.998669   -200.00417    21.658521   -323.93137   -807.24646 
  489000       69.879   -20100.632   -20051.215   -1276.7831   -1474.2991   -374.34913    7.4390135   -178.70481   -28.511361   -1041.8104 
  490000    69.250159   -20100.181   -20051.209   -1068.0279   -1372.3524   -11.762422    203.57748   -246.06974     280.1584   -817.38094 
  491000    69.371531   -20100.238    -20051.18   -989.10983   -1388.0477    138.04492     108.0159   -290.23346    97.949833   -746.37087 
  492000    69.895404   -20100.575   -20051.146   -1470.8707   -1401.5479   -525.19368    319.89772    57.110077    420.86561   -1132.5374 
  493000    70.192373   -20100.733   -20051.094    -1305.267   -1107.1142    176.56543    63.043281    180.81976    53.091049   -745.27195 
  494000    70.700916   -20101.039   -20051.041   -1242.8892   -992.43142    327.66268   -75.592353    192.74963   -173.78167   -635.88598 
  495000    70.153973   -20100.595   -20050.983   -1399.6074   -1169.2486    -92.05576   -105.45917    247.45813   -155.13709   -886.97057 
  496000    70.447572   -20100.733   -20050.914   -1242.5823   -1324.0275   -122.62492   -262.68378   -47.404596   -394.12798   -896.41157 
  497000    69.714338   -20100.126   -20050.825   -1111.4678   -1361.4537    135.15879    71.367616   -197.97292    33.078333   -779.25423 
  498000     71.29426   -20101.255   -20050.837   -1118.5956   -1496.9933   -79.984655    137.60518    -286.1971    154.73888    -898.5245 
  499000    70.011954   -20100.279   -20050.768   -1253.7119   -1411.8952   -92.846529    139.73729   -165.58551    242.60731   -919.48457 
  500000    70.503415   -20100.539    -20050.68   -1211.3893   -1123.0487     366.0926    278.28571    108.96561    479.33533   -656.11516 
  501000    70.053498   -20100.219   -20050.678   -1546.0471    -1368.131   -417.86105   -27.027683    215.47515   -93.060421   -1110.6797 
  502000     70.75445   -20100.604   -20050.568    -1509.912   -1170.9461   -219.08266   -114.66898    254.94634   -151.43413   -966.64695 
  503000    71.568356   -20101.152   -20050.541   -1261.0255   -1209.3826    114.20476   -90.642429    37.616542   -256.21512   -785.40112 
  504000    70.620937   -20100.358   -20050.416   -1374.9416   -1429.6449   -419.78213   -277.57368    -37.22939   -478.00375   -1074.7895 
  505000    70.457075    -20100.21   -20050.384   -1308.1199   -1501.2092   -268.84829    115.67391    -120.8356    118.85498   -1026.0591 
  506000    70.142444   -20099.947   -20050.343   -1096.9981   -1453.7202   -78.786409    132.68039   -324.88721    128.63489   -876.50157 
  507000    69.759411   -20099.629   -20050.297   -1169.0509   -1335.0755    168.40708    215.23827   -76.144404     299.3842   -778.57311 
  508000    70.144611   -20099.843   -20050.238   -1431.3908   -1196.9746   -101.10849    307.27144      196.016    410.66477   -909.82461 
  509000    70.208408   -20099.852   -20050.202   -1330.9348   -1172.4262    64.452897   -71.232982    161.07898   -124.95122   -812.96936 
  510000     70.22539   -20099.806   -20050.144   -1262.2309   -972.35392    417.94465    -113.9824    347.66097   -197.95494   -605.54674 
  511000     70.89816   -20100.271   -20050.133   -1269.7855   -1365.5654   -121.96784   -174.21671   -47.719849   -303.41786   -919.10623 
  512000    70.399666   -20099.887   -20050.102   -850.57192   -1146.7085    607.10102   -303.69669   -238.39924   -463.26541   -463.39313 
  513000    70.614338   -20099.948   -20050.011    -1010.186   -1364.2226     142.3073     122.1896     -216.425    147.06724   -744.03374 
  514000    71.552097   -20100.573   -20049.973   -1076.2852   -1525.2207   -293.43119    121.40016   -380.08799    193.13976   -964.97903 
  515000    70.834794    -20100.12   -20050.027    -1188.447   -1059.3601    124.06874     131.3697    116.03301    256.64227   -707.91279 
  516000    70.182489   -20099.675   -20050.043   -1202.5779   -957.26189    276.60369    200.62702    243.69239    373.21795   -627.74537 
  517000    71.022186   -20100.217   -20049.992   -1320.4241   -1023.1302    1.1460637   -22.149654    217.56864   -77.776301   -780.80272 
  518000    71.611015   -20100.564   -20049.922    -1589.429   -1280.0157   -485.37997   -113.22244    266.05552   -199.81964   -1118.2749 
  519000    71.805898    -20100.61    -20049.83   -1021.0932   -1330.3321    223.92024   -159.12616   -191.95617   -274.05366   -709.16835 
  520000    71.613941   -20100.436   -20049.792    -1111.921   -1541.9641   -109.41944   -137.30694   -302.82944   -235.13895   -921.10152 
  521000    71.449457   -20100.279   -20049.751   -910.75541   -1256.2986    211.58375    48.993944   -286.04135    144.90934   -651.82341 
  522000    71.578429   -20100.347   -20049.728   -924.57322   -1319.3563    316.58326    124.12033   -354.11709    184.70376   -642.44875 
  523000    71.062096   -20099.878   -20049.624   -1646.9469   -1347.8318   -679.81279    195.74942    179.18653    276.71043   -1224.8638 
  524000    71.542336   -20100.181   -20049.588   -1417.9334   -1014.1533   -7.7269949    144.39324    247.39061    220.98381   -813.27121 
  525000    71.514931   -20100.132   -20049.558   -1338.8409   -1055.8655   -23.719004   -86.550811    235.15971   -151.96192   -806.14182 
  526000    71.834484   -20100.336   -20049.536    -1431.052   -1069.0818   -34.211493   -98.370878    322.26713   -178.23331   -844.78177 
  527000    71.733189   -20100.182   -20049.453   -1241.3763   -1510.6699   -376.75867   -141.38913   -198.09312   -237.72071    -1042.935 
  528000    71.404495   -20099.961   -20049.465   -989.23033   -1394.7697    167.76852   -100.71665   -259.38326   -120.63365   -738.74382 
  529000    71.493479   -20099.919    -20049.36   -1039.0921   -1409.0347    -35.70093    94.869952   -254.59237    175.85943   -827.94259 
  530000    71.487812   -20099.919   -20049.364   -1103.2189   -1436.0441   -120.82445    201.01327   -238.28421    229.70543   -886.69581 
  531000    71.779401   -20100.063   -20049.302   -1195.0521   -897.14907    396.88344    147.03206    239.62172    236.77457   -565.10591 
  532000    71.083112   -20099.558   -20049.289   -1468.9338   -1102.8485   -122.16749   -18.167072    337.17329    46.475395   -897.98326 
  533000    71.958262   -20100.094   -20049.207   -1319.8415   -999.56881     78.26659   -45.219958    184.25632   -114.41432   -747.04791 
  534000    71.800519   -20099.995   -20049.219   -1220.2614   -984.46541    307.33661   -146.53417    136.42413    -285.2526    -632.4634 
  535000    71.408206   -20099.633   -20049.134   -939.36852   -1183.2474    316.55949   -164.61717   -226.66097   -318.79255   -602.01882 
  536000    71.773285   -20099.878   -20049.122   -1097.6137   -1491.5455   -78.382233    3.1196121    -218.4214   -4.8789068   -889.18048 
  537000    72.073429   -20100.052   -20049.083   -1063.0408    -1370.318   -131.88713    92.335974   -201.94797    145.56836   -855.08197 
  538000    70.972136   -20099.275   -20049.085   -1034.3202   -982.04907    422.89961    249.08884    16.970555    365.99401   -531.15655 
  539000    71.112676   -20099.361   -20049.071   -1570.5415   -1293.7134   -552.93758    227.38923    252.56831    364.01148   -1139.0642 
  540000    71.379024   -20099.449   -20048.971    -1157.622   -916.87257    365.17951   -84.806428    175.19413   -157.33564   -569.77167 
  541000    70.913242   -20099.131   -20048.982   -1300.7932   -995.99812    141.35572   -86.042171    261.92909   -166.82719   -718.47853 
  542000    72.325911   -20100.115   -20048.968   -1461.8479   -1486.4202   -698.55767   -241.97901    70.334985   -405.18311   -1215.6086 
  543000    71.446123   -20099.409   -20048.884   -912.16556   -1316.6138    141.09051   -133.35698   -256.36347   -261.63758   -695.89627 
  544000    70.697599   -20098.836    -20048.84   -1041.8461   -1319.7941   -98.261873    104.50811   -181.60262     102.0498   -819.96733 
  545000    71.120492   -20099.123   -20048.828   -1033.8814   -1450.7973   -206.01457    172.71931   -240.14438    167.35941   -896.89778 
  546000    70.822516   -20098.762   -20048.678   -1251.2954   -1197.6182   -177.72382     299.3605    49.974701     407.6179   -875.54581 
  547000    71.940617   -20099.479   -20048.604   -1288.2701   -907.97863    179.37276    174.12153     310.6449    250.27301   -672.29199 
  548000    71.905549   -20099.445   -20048.594   -1324.4219   -1074.9691   -71.363858   -55.764258    234.80577   -175.16285   -823.58495 
  549000    72.283769    -20099.58   -20048.462   -1400.1309   -1091.1138   -30.024626   -174.74355    289.27995    -203.8711   -840.42311 
  550000     72.19106   -20099.478   -20048.426   -923.53333    -1143.121    485.30957   -244.06527   -97.538126   -406.98014   -527.11494 
  551000    72.301647   -20099.506   -20048.376   -1056.4695   -1470.0108   -205.34731   -111.71043   -239.67926   -149.74484   -910.60919 
  552000    72.375467   -20099.533   -20048.351   -995.78179   -1254.5597     245.3861    111.19259   -187.92485    120.45149   -668.31848 
  553000     72.19859   -20099.382   -20048.324   -922.30761   -1487.5241   -15.599092    237.97385   -340.67033    309.43494   -808.47693 
  554000    71.927268   -20099.177   -20048.311   -1220.1575   -855.81193     350.1043    321.23092     236.8641    377.14623   -575.28838 
  555000    71.137284   -20098.507     -20048.2   -1253.6767   -1053.9551   -203.34652    97.834354    222.88754    149.30408   -836.99279 
  556000    71.377947   -20098.686   -20048.209   -1327.8094   -1020.3882    -35.19368    -169.2013    175.96514   -224.65933   -794.46377 
[...]
14863000    99.557126   -20079.246   -20008.841    307.22503    325.27652    1022.2898    168.14955    6.5900047    233.85758    551.59712 
14864000    99.826433   -20079.471   -20008.875    -120.2826   -531.76636   -271.74646   -9.9140261   -279.90344   -10.404469   -307.93181 
14865000    99.920289   -20079.555   -20008.893   -46.502885   -467.36982   -260.86484    175.65516   -258.64453    148.49246   -258.24585 
14866000    99.677366   -20079.385   -20008.895    322.45218   -68.519148    741.84177    124.80564   -283.37146    136.76448    331.92493 
14867000    98.449838   -20078.495   -20008.873   -109.98308   -84.125037    68.699869   -139.16053    67.945805   -358.11028   -41.802748 
14868000    98.340012   -20078.391   -20008.846   -549.15444   -121.46031   -500.78077   -30.769935    284.04759   -49.215061   -390.46517 
14869000    100.57066   -20079.961   -20008.839   -181.19384     28.56623    230.04581   -40.126105    175.61881   -59.475706    25.806066 
14870000    100.09538   -20079.579   -20008.793   -288.55183   -14.752979   -19.277091   -30.698307    149.03222   -8.5251392    -107.5273 
14871000     99.50714   -20079.114   -20008.745   -285.29588   -434.73431    -650.8125    196.86473   -142.46203    328.60733   -456.94756 
14872000    100.05494   -20079.497    -20008.74    230.15736   -131.81357    487.76199     45.80777   -346.11075    84.068267    195.36859 
14873000    100.31477   -20079.667   -20008.727   -165.09111   -268.38924   -229.11719     110.7578   -105.01187    200.59175   -220.86585 
14874000    101.20664   -20080.281   -20008.709   -301.43128   -531.88637   -544.81892     102.9365   -160.27713     174.2753   -459.37886 
14875000    99.851574     -20079.4   -20008.787   -8.9254956    217.22801    576.92934   -181.56091     54.50367   -365.12171    261.74395 
14876000    100.55784   -20079.914   -20008.801   -88.839036   -11.607587    163.05114   -138.51837    136.70915   -157.81642    20.868173 
14877000    100.64312   -20079.952   -20008.779    -549.8683   -466.81597   -724.67066   -116.23067     101.3956   -269.80559   -580.45164 
14878000    98.961882   -20078.744    -20008.76   -239.66056   -9.1854815   -84.547364   -23.330248    211.30616   -62.826822   -111.13113 
14879000    100.17977   -20079.601   -20008.755    219.64981    -59.38676    493.78265    325.72371   -146.36238    381.17439    218.01524 
14880000    99.357128   -20079.057   -20008.793   -35.952378   -205.80294    1.0502508    65.002058   -129.58655    116.01387   -80.235024 
14881000     97.24245   -20077.618    -20008.85    79.907584   -13.388405    376.80239    190.66946   -81.403421    148.94749    147.77385 
14882000    99.021936    -20078.81   -20008.784    50.016923   -181.65265    307.06038    40.750099   -149.19707    14.728646    58.474882 
14883000    98.986204   -20078.815   -20008.814   -381.91722   -68.876275   -211.43557   -261.36141    203.39902   -420.23122   -220.74302 
14884000    98.692713   -20078.593   -20008.799   -254.95465   -7.2331339     23.50132    -50.67716    203.22717   -85.623542   -79.562155 
14885000    98.750033   -20078.598   -20008.764    271.26305     206.6332    953.86792   -160.80908    12.400532   -185.04617    477.25472 
14886000    100.87751   -20080.128   -20008.789   -293.06013   -57.043256   -6.0784161   -36.504748    207.36197   -88.049135   -118.72727 
14887000    100.06095   -20079.549   -20008.787   -278.61011   -485.97921   -806.75117    194.30812    -56.94197    338.97828   -523.78016 
14888000    99.837439   -20079.492   -20008.889    -44.23334   -3.2155506    387.22512    110.50438   -109.89402    154.43888    113.25874 
14889000    100.22889   -20079.799   -20008.919   -267.71929   -263.22167   -124.21902     19.10754    6.0170552    97.767664   -218.38666 
14890000    99.014884   -20078.949   -20008.928    -241.5584   -509.90857   -532.71967   -3.7247819   -193.37212    62.078544   -428.06222 
14891000    99.024104   -20078.888   -20008.859   -92.347056    121.60801     577.5615   -121.69073    5.2111254   -300.15666    202.27415 
14892000    98.176363   -20078.263   -20008.834   -196.01743    162.39055    239.91725    -85.40658    252.06029   -151.08226    68.763459 
14893000    100.31312   -20079.787   -20008.847   -319.96702   -344.32984   -611.16486   -32.338005     39.47506   -128.81098   -425.15391 
14894000    99.648099   -20079.306   -20008.837   -256.55756    1.1795293    80.003319   -22.421597    123.12379   -27.231205   -58.458238 
14895000    100.79282   -20080.027   -20008.748   -79.807406   -193.03807    194.87769    115.23845   -87.728533    178.72711   -25.989262 
14896000    99.525183   -20079.161   -20008.778   -152.17578   -473.74912   -429.61707    203.21812   -300.82463    226.08924   -351.84732 
14897000     100.1414   -20079.615   -20008.797   -188.50735   -140.68684    167.36527    105.17433    137.42767    188.05607   -53.942973 
14898000     99.75373   -20079.385   -20008.841   -105.99463   -184.74332    21.149225    23.791544   -94.820898   -2.1049634   -89.862909 
14899000    98.957336   -20078.808   -20008.827   -358.27333   -434.48645   -653.82922   -172.57517    59.675829   -210.10937   -482.19633 
14900000    99.039624   -20078.816   -20008.777   -318.46561   -117.00279   -150.26677   -259.64781    168.70628   -317.33705   -195.24506 
14901000    100.34664   -20079.764   -20008.801    155.72543   -69.422152     535.2893   -21.001858   -155.05268   -92.663119    207.19752 
14902000    98.747363   -20078.624   -20008.792   -250.31954    39.331987    119.18823    7.7365374    97.821008    108.10812   -30.599773 
14903000    101.23117   -20080.328   -20008.739   -195.05925   -207.36685   -255.24245    75.224662    37.894548    108.24584   -219.22285 
14904000    99.450898   -20079.107   -20008.777    60.388146   -298.55804    237.20927    71.953776    -261.2486    167.89093  -0.32020531 
14905000    99.850937   -20079.421   -20008.809   -81.334874   -191.54974   -183.60291   -27.997679   0.17314271     5.190699   -152.16251 
14906000    98.952032   -20078.783   -20008.806   -68.930219   -256.23909   -59.927423    -120.4782     -71.6292   -150.15044   -128.36558 
14907000    99.062444   -20078.919   -20008.864    69.054441    97.203922    735.38929   -7.3619844   -79.680543     14.39436    300.54922 
14908000    99.900023   -20079.589   -20008.941   -430.80466    19.851186    68.179741   -133.48493    266.91749   -248.99809   -114.25791 
14909000    98.947384   -20078.866   -20008.893   -467.13413   -427.41424   -910.08274   -150.54685   -1.0049588    -138.3252    -601.5437 
14910000    99.475142   -20079.238   -20008.891   -61.738176   -88.101602     250.9121    101.86477   -82.656443    132.46515    33.690774 
14911000    99.352832   -20079.175   -20008.915    -188.5649   -198.64043   -54.879427   -17.916328    44.096515    53.429215   -147.36159 
14912000    98.667135   -20078.754   -20008.978   -80.263195    -524.4641   -524.88988    172.30237   -270.04721    264.84894   -376.53906 
14913000    98.820456   -20078.889   -20009.005    76.306547    102.24649    631.64197   -23.046342    76.496724    51.666214      270.065 
14914000    99.863404   -20079.659   -20009.037   -207.65576   -285.97496   -151.61324   -176.65006    84.882456   -233.26642   -215.08132 
14915000    99.371212   -20079.259   -20008.985   -358.92809   -402.98392   -523.29802    18.573629   -84.265204   -9.8926548   -428.40334 
14916000    99.948106   -20079.699   -20009.017   -154.85649    35.760557    208.67886   -165.28174    210.85012    -102.8288    29.860978 
14917000    98.149042   -20078.434   -20009.025   -92.602366     143.6367    485.98672   -72.596546    67.521024   -88.174588    179.00702 
14918000    97.719862   -20078.101   -20008.995   -311.95855   -238.43087   -344.48654     241.5002   -123.56448    302.75473   -298.29199 
14919000    100.08668   -20079.723   -20008.944   -155.14717   -118.96877     54.38147    1.9928464   -20.451637    122.24177   -73.244823 
14920000    99.725323   -20079.455   -20008.931    29.621569   -169.09209    298.81859    148.84344    -218.1775    264.67416    53.116026 
14921000    98.992289   -20078.827   -20008.821   -288.34251   -474.18187   -627.92966   -19.498322   -139.62435    93.487463   -463.48468 
14922000    100.00353   -20079.578   -20008.858   -301.81385   -190.16165    -325.3084   -260.86016    173.51094   -322.92898   -272.42797 
14923000    100.44172   -20079.801    -20008.77    14.034336    135.13279    672.09927   -50.038839    40.489915    -92.37201    273.75547 
14924000    100.71938   -20080.078   -20008.851   -251.00364   -99.658222   -271.25244   -81.978742    97.301176   -130.03376   -207.30477 
14925000    99.747575   -20079.409   -20008.869   -246.61229   -162.24454   -267.98989    54.080641    79.208173      117.732   -225.61557 
14926000    98.651274   -20078.667   -20008.903    135.43382   -209.40239    267.19653    221.84346   -309.41696    342.44856    64.409319 
14927000    101.13541   -20080.371    -20008.85   -177.30696   -469.29643   -499.60467   -15.722701   -155.46851    72.807425   -382.06936 
14928000    98.957813     -20078.8   -20008.819   -283.19777    -194.6692   -205.04742    27.440376     16.98177    93.772714   -227.63813 
14929000    99.226174    -20079.11   -20008.939    273.33041    163.94076    748.01517    32.777654    -53.66914    37.399713    395.09545 
14930000    99.858694   -20079.487   -20008.868   -262.89254   -82.329413    12.350757   -164.30248    206.81763   -326.78835   -110.95706 
14931000    99.164789   -20078.986   -20008.859   -433.85187   -327.19096   -532.08803   -83.422112    141.12091   -112.07025   -431.04362 
14932000    100.15097   -20079.609   -20008.784   -39.356238   -70.140281    191.95804    37.548757   -51.796166   -67.040057    27.487174 
14933000    97.767245   -20077.809    -20008.67   -1.6082558    162.80979    478.25592    -16.01202    66.359401    25.234826    213.15248 
14934000    100.09243   -20079.464    -20008.68    -200.5317   -416.37244    -352.9141    306.70256   -124.30872    456.30428   -323.27275 
14935000    101.15478   -20080.213   -20008.678    160.39581    -353.8552    437.05801    115.88804   -254.32037     120.4268    81.199543 
14936000    99.330436   -20078.903   -20008.659    -36.51547   -64.480661    432.74953    108.00992   -21.867787    118.17465    110.58447 
14937000    98.986186   -20078.683   -20008.682   -470.67349   -378.17905   -662.65141   -115.16471   -52.662757   -277.15053   -503.83465 
14938000    101.05312   -20080.168   -20008.705   -293.88924   -49.453419    215.37735   -140.33317    159.26303   -367.95891   -42.655103 
14939000    99.278294   -20078.962   -20008.754   -390.91154   -48.018808   -73.235034   -131.62914    296.65849   -240.69646   -170.72179 
14940000    101.83877   -20080.846   -20008.828   -412.93283   -539.79302   -790.42534   -149.93471   -87.092066   -140.77549    -581.0504 
14941000    100.56799   -20079.897   -20008.778   -199.81799   -243.77805   -96.918039    108.28734   -24.271334     201.5627   -180.17136 
14942000    98.108633    -20078.16   -20008.779    334.30681    21.655142    632.31861    142.71568    -231.6885    237.51762    329.42685 
14943000    99.194352   -20078.957   -20008.808   -121.92714   -433.95111   -410.57877    125.12625   -316.47318    212.71216   -322.15234 
14944000    99.934479   -20079.433   -20008.761   -127.19262   -287.66532   -303.21486   -3.2627689   -65.580237    74.347419    -239.3576 
14945000    98.097377   -20078.175   -20008.802    101.84682    104.64344    634.03176   -126.02172   -1.2635092   -212.10478    280.17401 
14946000    98.787561   -20078.695   -20008.834    -315.1566   -104.59186   -313.75441   -124.19197    135.05433   -289.95856   -244.50096 
14947000    98.235222   -20078.283   -20008.813   -388.58248    61.889983   -245.81478    -191.7628    351.50208   -204.68199   -190.83576 
14948000    99.950059   -20079.557   -20008.874    24.474168   -6.2425309    288.88743    -138.9144   -18.148491   -167.71533    102.37302 
14949000    99.524562   -20079.273   -20008.891   -109.91514   -277.34577   -100.72233    124.51921   -100.41408    209.09846   -162.66108 
14950000    100.15036   -20079.718   -20008.894   -142.52131   -523.56754   -434.43999    134.45247   -122.97589    204.13657   -366.84295 
14951000    100.54322   -20080.058   -20008.956    536.04716   -142.21199    823.97269    307.18371   -425.93755    326.21445    405.93595 
14952000    100.65141   -20080.113   -20008.934   -75.964364   -201.19402   -114.79104    63.030622   -44.772836    60.533068   -130.64981 
14953000    99.311332    -20079.11   -20008.879   -476.00661   -290.22004   -406.12685   -317.11129    68.028357   -406.00405    -390.7845 
14954000    98.714907   -20078.659    -20008.85   -83.831469     234.8484    573.83425   -166.36348    195.18957    -312.4367    241.61706 
14955000    100.12019   -20079.625   -20008.822   -372.80678    167.14145    86.046396   -105.03894    338.74945   -266.33597   -39.872976 
14956000    101.57891   -20080.605    -20008.77   -480.47337   -398.24516   -656.93763   -87.616818    66.365242   -25.507814   -511.88539 
14957000    100.91511   -20080.205    -20008.84   -62.998168   -289.25062    83.696313    312.51925   -207.60151    338.96245   -89.517492 
14958000    98.921627   -20078.826    -20008.87    37.142099   -169.92458     349.9511    150.13881   -149.75844     139.7033    72.389538 
14959000    100.26094   -20079.923    -20009.02   -149.52712   -756.49605   -943.63112    120.69612   -360.16495        216.7   -616.55143 
14960000     99.85852   -20079.676   -20009.057   -18.858193   -210.10353    113.43099    28.210718   -122.60074    210.56594   -38.510244 
14961000    99.265656   -20079.226   -20009.027   -131.18389   -26.590708    318.98154   -226.76154    170.67981   -356.24987    53.735648 
14962000    99.060398   -20079.096   -20009.043   -330.22738   -252.27242   -417.89087   -106.89892     157.9948   -188.30639   -333.46356 
14963000    100.23442   -20079.938   -20009.054   -491.65364    107.82556    96.610967   -181.75725    492.13735   -207.42108   -95.739039 
14964000       101.11   -20080.586   -20009.083   -126.15429   -15.477114    441.12008    60.427487    118.05211    2.8662033    99.829559 
14965000    101.31045   -20080.665    -20009.02   -267.28111   -498.74932   -440.01348    277.85489   -146.31379     387.9737   -402.01464 
14966000     99.95084   -20079.676   -20008.993   -123.00736   -574.98225   -407.31257    214.82374   -289.06741    181.44386   -368.43406 
14967000    99.428038   -20079.263    -20008.95    305.68825   -329.25513    591.00658     150.4642   -452.28176    364.80443    189.14657 
14968000    100.01565   -20079.678   -20008.949   -188.40072   -223.01411   -279.57285   -35.034815   -21.206492   -99.745485   -230.32923 
14969000    98.296199   -20078.402   -20008.889   -480.73363   -21.058175   -211.01685   -305.70081    258.71002   -479.09756   -237.60289 
14970000    99.276149   -20079.058   -20008.852   -30.313807    309.74716    756.58583   -263.75023    203.40936   -359.42421    345.33973 
14971000    99.647028   -20079.225   -20008.757   -440.24245    176.91627   -33.309447   -187.89042    438.85187   -270.62352   -98.878542 
14972000    100.37044   -20079.642   -20008.662   -563.44718   -418.30501   -783.32044     48.14489    25.073248    72.928809   -588.35754 
14973000    100.01013   -20079.341   -20008.616    262.44293    29.922212    747.04373    265.76221   -50.800308    401.53073    346.46963 
14974000    100.98449   -20079.932   -20008.518    169.70116   -170.18544    612.16158    238.32827   -249.61172    298.37978    203.89243 
14975000    100.47828    -20079.56   -20008.503   -321.75222   -785.74122   -924.61747    206.89169   -442.77221    285.92803    -677.3703 
14976000    100.32962   -20079.443   -20008.492   -135.74891   -279.10891   -152.82731   -50.965487   -179.32295   -87.112863   -189.22838 
14977000    100.13057     -20079.4    -20008.59   -77.208415   -18.113132    313.36514   -280.97811    163.79998   -472.61825    72.681197 
14978000    98.404936   -20078.258   -20008.668   -639.54469   -281.67792   -846.08384   -154.66304    362.34755   -313.88283   -589.10215 
14979000    99.549485   -20079.043   -20008.644   -306.89658    13.547497    144.40897   -145.04337    396.88956   -253.19092   -49.646703 
14980000    99.550768   -20079.139   -20008.739   -192.50394     94.99721    438.97125    77.817998    200.40879    153.31171    113.82151 
14981000    99.806567   -20079.332    -20008.75    -340.7656   -657.57941   -960.09521    246.39692   -229.08118    438.76037    -652.8134 
14982000    99.712292   -20079.174   -20008.659     45.93051   -447.08756   -151.34111    15.729354   -313.64729    168.16778   -184.16605 
14983000    99.600335   -20079.045   -20008.609    240.04545    51.960775    626.35632    187.88217   -253.21325    284.89166    306.12085 
14984000    101.71356   -20080.558   -20008.628   -267.86662   -457.52515   -397.54198   -124.42129   -106.46107   -243.12564   -374.31125 
14985000    100.65063   -20079.796   -20008.617   -259.51777   -92.455327    -59.85252   -255.45964    218.75439   -460.27232    -137.2752 
14986000    98.428227    -20078.21   -20008.604    90.390969    218.99267    894.14458   -155.30782    276.90366   -229.03416    401.17607 
14987000    100.22304   -20079.497   -20008.621   -398.48415   -98.631428   -205.08401   -91.253404    222.77332   -164.05058   -234.06653 
14988000    98.995183   -20078.575   -20008.567   -446.58636   -216.87501   -718.08712    284.04675    240.42648    364.41078   -460.51616 
14989000    99.199439   -20078.732   -20008.579    282.03147   -65.931436    817.53203    202.05161   -140.70278    374.13079    344.54402 
14990000    100.47227   -20079.657   -20008.605    35.535731   -320.35785    18.621468    148.90804   -197.49039    312.69155   -88.733549 
14991000    99.722037    -20079.09   -20008.569   -118.38753    -547.8911   -408.21239   -18.262257   -204.44254    52.355157   -358.16367 
14992000    99.668423   -20079.072   -20008.588    152.11403   -94.501548    493.95309   -287.20109   -123.94866   -432.17547    183.85519 
14993000    100.41496   -20079.573   -20008.562   -293.24892   -8.6571448    56.310286    -252.6537    335.51178   -371.52716    -81.86526 
14994000    100.48014   -20079.617   -20008.559   -655.34076   -213.56104   -770.90967   -181.97819    330.92658   -215.42863   -546.60382 
14995000    99.964908   -20079.234   -20008.541   -5.2760219    141.11191    556.71591   -67.389019    182.07292   -56.870987     230.8506 
14996000    100.29278    -20079.46   -20008.535   -117.18164    216.66745    476.98676    241.12853     222.9558    367.20102    192.15752 
14997000     100.3076   -20079.441   -20008.505   -345.24459     -773.344   -862.52642    225.24087   -253.09364    365.05234   -660.37167 
14998000    100.46025   -20079.499   -20008.455   -14.993264   -490.36849   -438.36554    132.61188    -306.8544    276.62524   -314.57577 
14999000     99.10551   -20078.507   -20008.422    197.61084    -14.27115    721.41709   -95.956706   -45.942945   -7.7107277    301.58559 
15000000    99.006078   -20078.368   -20008.353   -157.23019   -573.57312   -801.66973   -241.09249   -209.46141   -451.91474   -510.82435 
Loop time of 120264 on 4 procs for 15000000 steps with 5760 atoms

Pair  time (%) = 103856 (86.3569)
Neigh time (%) = 0 (0)
Comm  time (%) = 12777.3 (10.6244)
Outpt time (%) = 3.26117 (0.00271168)
Other time (%) = 3627.16 (3.01601)

Nlocal:    1440 ave 1584 max 1296 min
Histogram: 2 0 0 0 0 0 0 0 0 2
Nghost:    4277 ave 4536 max 4018 min
Histogram: 2 0 0 0 0 0 0 0 0 2
Neighs:    164520 ave 183132 max 145980 min
Histogram: 2 0 0 0 0 0 0 0 0 2

Total # of neighbors = 658080
Ave neighs/atom = 114.25
Neighbor list builds = 0
Dangerous builds = 0
