
        3840 atoms

5 atom types

0.0         23.024019 xlo xhi
0.0         23.024019 ylo yhi
      -48.841321       158.73428 zlo zhi

Masses

1 1.000000
2 1.000000
3 1.000000
4 1.000000
5 1.000000

Atoms
 
      1 5     0.0000000     0.0000000     0.00000000000
      2 5     1.4390012     1.4390012     2.03505500550
      3 5     0.0000000     0.0000000     4.07011001100
      4 5     1.4390012     1.4390012     6.10516501650
      5 1     0.0000000     0.0000000     8.1402200
      6 1     1.4390012     1.4390012    10.1752750
      7 1     0.0000000     0.0000000    12.2103300
      8 1     1.4390012     1.4390012    14.2453850
      9 1     0.0000000     0.0000000    16.2804400
     10 1     1.4390012     1.4390012    18.3154950
     11 1     0.0000000     0.0000000    20.3505500
     12 1     1.4390012     1.4390012    22.3856050
     13 1     0.0000000     0.0000000    24.4206600
     14 1     1.4390012     1.4390012    26.4557150
     15 1     0.0000000     0.0000000    28.4907700
     16 1     1.4390012     1.4390012    30.5258250
     17 1     0.0000000     0.0000000    32.5608800
     18 1     1.4390012     1.4390012    34.5959350
     19 1     0.0000000     0.0000000    36.6309900
     20 1     1.4390012     1.4390012    38.6660450
     21 1     0.0000000     0.0000000    40.7011000
     22 1     1.4390012     1.4390012    42.7361550
     23 1     0.0000000     0.0000000    44.7712100
     24 1     1.4390012     1.4390012    46.8062650
     25 1     0.0000000     0.0000000    48.8413200
     26 1     1.4390012     1.4390012    50.8763750
     27 1     0.0000000     0.0000000    52.9114300
     28 1     1.4390012     1.4390012    54.9464850
     29 1     0.0000000     0.0000000    56.9815400
     30 1     1.4390012     1.4390012    59.0165950
     31 1     0.0000000     0.0000000    61.0516500
     32 1     1.4390012     1.4390012    63.0867050
     33 1     0.0000000     0.0000000    65.1217600
     34 1     1.4390012     1.4390012    67.1568150
     35 1     0.0000000     0.0000000    69.1918700
     36 1     1.4390012     1.4390012    71.2269250
     37 1     0.0000000     0.0000000    73.2619800
     38 1     1.4390012     1.4390012    75.2970350
     39 1     0.0000000     0.0000000    77.3320900
     40 1     1.4390012     1.4390012    79.3671450
     41 1     0.0000000     0.0000000    81.4022000
     42 1     1.4390012     1.4390012    83.4372550
     43 1     0.0000000     0.0000000    85.4723100
     44 1     1.4390012     1.4390012    87.5073650
     45 1     0.0000000     0.0000000    89.5424200
     46 1     1.4390012     1.4390012    91.5774750
     47 4     0.0000000     0.0000000    93.6125300
     48 4     1.4390012     1.4390012    95.6475850
     49 3     0.0000000     0.0000000    97.6826400
     50 3     1.4390012     1.4390012    99.7176950
     51 3     0.0000000     0.0000000   101.7527500
     52 3     1.4390012     1.4390012   103.7878050
     53 3     0.0000000     0.0000000   105.8228600
     54 3     1.4390012     1.4390012   107.8579150
     55 3     0.0000000     0.0000000   109.8929700
     56 3     1.4390012     1.4390012   111.9280250
     57 3     0.0000000     0.0000000   113.9630800
     58 3     1.4390012     1.4390012   115.9981350
     59 3     0.0000000     0.0000000   118.0331900
     60 3     1.4390012     1.4390012   120.0682450
     61 5     0.0000000     2.8780024     0.00000000000
     62 5     1.4390012     4.3170036     2.03505500550
     63 5     0.0000000     2.8780024     4.07011001100
     64 5     1.4390012     4.3170036     6.10516501650
     65 1     0.0000000     2.8780024     8.1402200
     66 1     1.4390012     4.3170036    10.1752750
     67 1     0.0000000     2.8780024    12.2103300
     68 1     1.4390012     4.3170036    14.2453850
     69 1     0.0000000     2.8780024    16.2804400
     70 1     1.4390012     4.3170036    18.3154950
     71 1     0.0000000     2.8780024    20.3505500
     72 1     1.4390012     4.3170036    22.3856050
     73 1     0.0000000     2.8780024    24.4206600
     74 1     1.4390012     4.3170036    26.4557150
     75 1     0.0000000     2.8780024    28.4907700
     76 1     1.4390012     4.3170036    30.5258250
     77 1     0.0000000     2.8780024    32.5608800
     78 1     1.4390012     4.3170036    34.5959350
     79 1     0.0000000     2.8780024    36.6309900
     80 1     1.4390012     4.3170036    38.6660450
     81 1     0.0000000     2.8780024    40.7011000
     82 1     1.4390012     4.3170036    42.7361550
     83 1     0.0000000     2.8780024    44.7712100
     84 1     1.4390012     4.3170036    46.8062650
     85 1     0.0000000     2.8780024    48.8413200
     86 1     1.4390012     4.3170036    50.8763750
     87 1     0.0000000     2.8780024    52.9114300
     88 1     1.4390012     4.3170036    54.9464850
     89 1     0.0000000     2.8780024    56.9815400
     90 1     1.4390012     4.3170036    59.0165950
     91 1     0.0000000     2.8780024    61.0516500
     92 1     1.4390012     4.3170036    63.0867050
     93 1     0.0000000     2.8780024    65.1217600
     94 1     1.4390012     4.3170036    67.1568150
     95 1     0.0000000     2.8780024    69.1918700
     96 1     1.4390012     4.3170036    71.2269250
     97 1     0.0000000     2.8780024    73.2619800
     98 1     1.4390012     4.3170036    75.2970350
     99 1     0.0000000     2.8780024    77.3320900
    100 1     1.4390012     4.3170036    79.3671450
    101 1     0.0000000     2.8780024    81.4022000
    102 1     1.4390012     4.3170036    83.4372550
    103 1     0.0000000     2.8780024    85.4723100
    104 1     1.4390012     4.3170036    87.5073650
    105 1     0.0000000     2.8780024    89.5424200
    106 1     1.4390012     4.3170036    91.5774750
    107 4     0.0000000     2.8780024    93.6125300
    108 4     1.4390012     4.3170036    95.6475850
    109 3     0.0000000     2.8780024    97.6826400
    110 3     1.4390012     4.3170036    99.7176950
    111 3     0.0000000     2.8780024   101.7527500
    112 3     1.4390012     4.3170036   103.7878050
    113 3     0.0000000     2.8780024   105.8228600
    114 3     1.4390012     4.3170036   107.8579150
    115 3     0.0000000     2.8780024   109.8929700
    116 3     1.4390012     4.3170036   111.9280250
    117 3     0.0000000     2.8780024   113.9630800
    118 3     1.4390012     4.3170036   115.9981350
    119 3     0.0000000     2.8780024   118.0331900
    120 3     1.4390012     4.3170036   120.0682450
    121 5     0.0000000     5.7560048     0.00000000000
    122 5     1.4390012     7.1950060     2.03505500550
    123 5     0.0000000     5.7560048     4.07011001100
    124 5     1.4390012     7.1950060     6.10516501650
    125 1     0.0000000     5.7560048     8.1402200
    126 1     1.4390012     7.1950060    10.1752750
    127 1     0.0000000     5.7560048    12.2103300
    128 1     1.4390012     7.1950060    14.2453850
    129 1     0.0000000     5.7560048    16.2804400
    130 1     1.4390012     7.1950060    18.3154950
    131 1     0.0000000     5.7560048    20.3505500
    132 1     1.4390012     7.1950060    22.3856050
    133 1     0.0000000     5.7560048    24.4206600
    134 1     1.4390012     7.1950060    26.4557150
    135 1     0.0000000     5.7560048    28.4907700
    136 1     1.4390012     7.1950060    30.5258250
    137 1     0.0000000     5.7560048    32.5608800
    138 1     1.4390012     7.1950060    34.5959350
    139 1     0.0000000     5.7560048    36.6309900
    140 1     1.4390012     7.1950060    38.6660450
    141 1     0.0000000     5.7560048    40.7011000
    142 1     1.4390012     7.1950060    42.7361550
    143 1     0.0000000     5.7560048    44.7712100
    144 1     1.4390012     7.1950060    46.8062650
    145 1     0.0000000     5.7560048    48.8413200
    146 1     1.4390012     7.1950060    50.8763750
    147 1     0.0000000     5.7560048    52.9114300
    148 1     1.4390012     7.1950060    54.9464850
    149 1     0.0000000     5.7560048    56.9815400
    150 1     1.4390012     7.1950060    59.0165950
    151 1     0.0000000     5.7560048    61.0516500
    152 1     1.4390012     7.1950060    63.0867050
    153 1     0.0000000     5.7560048    65.1217600
    154 1     1.4390012     7.1950060    67.1568150
    155 1     0.0000000     5.7560048    69.1918700
    156 1     1.4390012     7.1950060    71.2269250
    157 1     0.0000000     5.7560048    73.2619800
    158 1     1.4390012     7.1950060    75.2970350
    159 1     0.0000000     5.7560048    77.3320900
    160 1     1.4390012     7.1950060    79.3671450
    161 1     0.0000000     5.7560048    81.4022000
    162 1     1.4390012     7.1950060    83.4372550
    163 1     0.0000000     5.7560048    85.4723100
    164 1     1.4390012     7.1950060    87.5073650
    165 1     0.0000000     5.7560048    89.5424200
    166 1     1.4390012     7.1950060    91.5774750
    167 4     0.0000000     5.7560048    93.6125300
    168 4     1.4390012     7.1950060    95.6475850
    169 3     0.0000000     5.7560048    97.6826400
    170 3     1.4390012     7.1950060    99.7176950
    171 3     0.0000000     5.7560048   101.7527500
    172 3     1.4390012     7.1950060   103.7878050
    173 3     0.0000000     5.7560048   105.8228600
    174 3     1.4390012     7.1950060   107.8579150
    175 3     0.0000000     5.7560048   109.8929700
    176 3     1.4390012     7.1950060   111.9280250
    177 3     0.0000000     5.7560048   113.9630800
    178 3     1.4390012     7.1950060   115.9981350
    179 3     0.0000000     5.7560048   118.0331900
    180 3     1.4390012     7.1950060   120.0682450
    181 5     0.0000000     8.6340071     0.00000000000
    182 5     1.4390012    10.0730083     2.03505500550
    183 5     0.0000000     8.6340071     4.07011001100
    184 5     1.4390012    10.0730083     6.10516501650
    185 1     0.0000000     8.6340071     8.1402200
    186 1     1.4390012    10.0730083    10.1752750
    187 1     0.0000000     8.6340071    12.2103300
    188 1     1.4390012    10.0730083    14.2453850
    189 1     0.0000000     8.6340071    16.2804400
    190 1     1.4390012    10.0730083    18.3154950
    191 1     0.0000000     8.6340071    20.3505500
    192 1     1.4390012    10.0730083    22.3856050
    193 1     0.0000000     8.6340071    24.4206600
    194 1     1.4390012    10.0730083    26.4557150
    195 1     0.0000000     8.6340071    28.4907700
    196 1     1.4390012    10.0730083    30.5258250
    197 1     0.0000000     8.6340071    32.5608800
    198 1     1.4390012    10.0730083    34.5959350
    199 1     0.0000000     8.6340071    36.6309900
    200 1     1.4390012    10.0730083    38.6660450
    201 1     0.0000000     8.6340071    40.7011000
    202 1     1.4390012    10.0730083    42.7361550
    203 1     0.0000000     8.6340071    44.7712100
    204 1     1.4390012    10.0730083    46.8062650
    205 1     0.0000000     8.6340071    48.8413200
    206 1     1.4390012    10.0730083    50.8763750
    207 1     0.0000000     8.6340071    52.9114300
    208 1     1.4390012    10.0730083    54.9464850
    209 1     0.0000000     8.6340071    56.9815400
    210 1     1.4390012    10.0730083    59.0165950
    211 1     0.0000000     8.6340071    61.0516500
    212 1     1.4390012    10.0730083    63.0867050
    213 1     0.0000000     8.6340071    65.1217600
    214 1     1.4390012    10.0730083    67.1568150
    215 1     0.0000000     8.6340071    69.1918700
    216 1     1.4390012    10.0730083    71.2269250
    217 1     0.0000000     8.6340071    73.2619800
    218 1     1.4390012    10.0730083    75.2970350
    219 1     0.0000000     8.6340071    77.3320900
    220 1     1.4390012    10.0730083    79.3671450
    221 1     0.0000000     8.6340071    81.4022000
    222 1     1.4390012    10.0730083    83.4372550
    223 1     0.0000000     8.6340071    85.4723100
    224 1     1.4390012    10.0730083    87.5073650
    225 1     0.0000000     8.6340071    89.5424200
    226 1     1.4390012    10.0730083    91.5774750
    227 4     0.0000000     8.6340071    93.6125300
    228 4     1.4390012    10.0730083    95.6475850
    229 3     0.0000000     8.6340071    97.6826400
    230 3     1.4390012    10.0730083    99.7176950
    231 3     0.0000000     8.6340071   101.7527500
    232 3     1.4390012    10.0730083   103.7878050
    233 3     0.0000000     8.6340071   105.8228600
    234 3     1.4390012    10.0730083   107.8579150
    235 3     0.0000000     8.6340071   109.8929700
    236 3     1.4390012    10.0730083   111.9280250
    237 3     0.0000000     8.6340071   113.9630800
    238 3     1.4390012    10.0730083   115.9981350
    239 3     0.0000000     8.6340071   118.0331900
    240 3     1.4390012    10.0730083   120.0682450
    241 5     0.0000000    11.5120095     0.00000000000
    242 5     1.4390012    12.9510107     2.03505500550
    243 5     0.0000000    11.5120095     4.07011001100
    244 5     1.4390012    12.9510107     6.10516501650
    245 1     0.0000000    11.5120095     8.1402200
    246 1     1.4390012    12.9510107    10.1752750
    247 1     0.0000000    11.5120095    12.2103300
    248 1     1.4390012    12.9510107    14.2453850
    249 1     0.0000000    11.5120095    16.2804400
    250 1     1.4390012    12.9510107    18.3154950
    251 1     0.0000000    11.5120095    20.3505500
    252 1     1.4390012    12.9510107    22.3856050
    253 1     0.0000000    11.5120095    24.4206600
    254 1     1.4390012    12.9510107    26.4557150
    255 1     0.0000000    11.5120095    28.4907700
    256 1     1.4390012    12.9510107    30.5258250
    257 1     0.0000000    11.5120095    32.5608800
    258 1     1.4390012    12.9510107    34.5959350
    259 1     0.0000000    11.5120095    36.6309900
    260 1     1.4390012    12.9510107    38.6660450
    261 1     0.0000000    11.5120095    40.7011000
    262 1     1.4390012    12.9510107    42.7361550
    263 1     0.0000000    11.5120095    44.7712100
    264 1     1.4390012    12.9510107    46.8062650
    265 1     0.0000000    11.5120095    48.8413200
    266 1     1.4390012    12.9510107    50.8763750
    267 1     0.0000000    11.5120095    52.9114300
    268 1     1.4390012    12.9510107    54.9464850
    269 1     0.0000000    11.5120095    56.9815400
    270 1     1.4390012    12.9510107    59.0165950
    271 1     0.0000000    11.5120095    61.0516500
    272 1     1.4390012    12.9510107    63.0867050
    273 1     0.0000000    11.5120095    65.1217600
    274 1     1.4390012    12.9510107    67.1568150
    275 1     0.0000000    11.5120095    69.1918700
    276 1     1.4390012    12.9510107    71.2269250
    277 1     0.0000000    11.5120095    73.2619800
    278 1     1.4390012    12.9510107    75.2970350
    279 1     0.0000000    11.5120095    77.3320900
    280 1     1.4390012    12.9510107    79.3671450
    281 1     0.0000000    11.5120095    81.4022000
    282 1     1.4390012    12.9510107    83.4372550
    283 1     0.0000000    11.5120095    85.4723100
    284 1     1.4390012    12.9510107    87.5073650
    285 1     0.0000000    11.5120095    89.5424200
    286 1     1.4390012    12.9510107    91.5774750
    287 4     0.0000000    11.5120095    93.6125300
    288 4     1.4390012    12.9510107    95.6475850
    289 3     0.0000000    11.5120095    97.6826400
    290 3     1.4390012    12.9510107    99.7176950
    291 3     0.0000000    11.5120095   101.7527500
    292 3     1.4390012    12.9510107   103.7878050
    293 3     0.0000000    11.5120095   105.8228600
    294 3     1.4390012    12.9510107   107.8579150
    295 3     0.0000000    11.5120095   109.8929700
    296 3     1.4390012    12.9510107   111.9280250
    297 3     0.0000000    11.5120095   113.9630800
    298 3     1.4390012    12.9510107   115.9981350
    299 3     0.0000000    11.5120095   118.0331900
    300 3     1.4390012    12.9510107   120.0682450
    301 5     0.0000000    14.3900119     0.00000000000
    302 5     1.4390012    15.8290131     2.03505500550
    303 5     0.0000000    14.3900119     4.07011001100
    304 5     1.4390012    15.8290131     6.10516501650
    305 1     0.0000000    14.3900119     8.1402200
    306 1     1.4390012    15.8290131    10.1752750
    307 1     0.0000000    14.3900119    12.2103300
    308 1     1.4390012    15.8290131    14.2453850
    309 1     0.0000000    14.3900119    16.2804400
    310 1     1.4390012    15.8290131    18.3154950
    311 1     0.0000000    14.3900119    20.3505500
    312 1     1.4390012    15.8290131    22.3856050
    313 1     0.0000000    14.3900119    24.4206600
    314 1     1.4390012    15.8290131    26.4557150
    315 1     0.0000000    14.3900119    28.4907700
    316 1     1.4390012    15.8290131    30.5258250
    317 1     0.0000000    14.3900119    32.5608800
    318 1     1.4390012    15.8290131    34.5959350
    319 1     0.0000000    14.3900119    36.6309900
    320 1     1.4390012    15.8290131    38.6660450
    321 1     0.0000000    14.3900119    40.7011000
    322 1     1.4390012    15.8290131    42.7361550
    323 1     0.0000000    14.3900119    44.7712100
    324 1     1.4390012    15.8290131    46.8062650
    325 1     0.0000000    14.3900119    48.8413200
    326 1     1.4390012    15.8290131    50.8763750
    327 1     0.0000000    14.3900119    52.9114300
    328 1     1.4390012    15.8290131    54.9464850
    329 1     0.0000000    14.3900119    56.9815400
    330 1     1.4390012    15.8290131    59.0165950
    331 1     0.0000000    14.3900119    61.0516500
    332 1     1.4390012    15.8290131    63.0867050
    333 1     0.0000000    14.3900119    65.1217600
    334 1     1.4390012    15.8290131    67.1568150
    335 1     0.0000000    14.3900119    69.1918700
    336 1     1.4390012    15.8290131    71.2269250
    337 1     0.0000000    14.3900119    73.2619800
    338 1     1.4390012    15.8290131    75.2970350
    339 1     0.0000000    14.3900119    77.3320900
    340 1     1.4390012    15.8290131    79.3671450
    341 1     0.0000000    14.3900119    81.4022000
    342 1     1.4390012    15.8290131    83.4372550
    343 1     0.0000000    14.3900119    85.4723100
    344 1     1.4390012    15.8290131    87.5073650
    345 1     0.0000000    14.3900119    89.5424200
    346 1     1.4390012    15.8290131    91.5774750
    347 4     0.0000000    14.3900119    93.6125300
    348 4     1.4390012    15.8290131    95.6475850
    349 3     0.0000000    14.3900119    97.6826400
    350 3     1.4390012    15.8290131    99.7176950
    351 3     0.0000000    14.3900119   101.7527500
    352 3     1.4390012    15.8290131   103.7878050
    353 3     0.0000000    14.3900119   105.8228600
    354 3     1.4390012    15.8290131   107.8579150
    355 3     0.0000000    14.3900119   109.8929700
    356 3     1.4390012    15.8290131   111.9280250
    357 3     0.0000000    14.3900119   113.9630800
    358 3     1.4390012    15.8290131   115.9981350
    359 3     0.0000000    14.3900119   118.0331900
    360 3     1.4390012    15.8290131   120.0682450
    361 5     0.0000000    17.2680143     0.00000000000
    362 5     1.4390012    18.7070155     2.03505500550
    363 5     0.0000000    17.2680143     4.07011001100
    364 5     1.4390012    18.7070155     6.10516501650
    365 1     0.0000000    17.2680143     8.1402200
    366 1     1.4390012    18.7070155    10.1752750
    367 1     0.0000000    17.2680143    12.2103300
    368 1     1.4390012    18.7070155    14.2453850
    369 1     0.0000000    17.2680143    16.2804400
    370 1     1.4390012    18.7070155    18.3154950
    371 1     0.0000000    17.2680143    20.3505500
    372 1     1.4390012    18.7070155    22.3856050
    373 1     0.0000000    17.2680143    24.4206600
    374 1     1.4390012    18.7070155    26.4557150
    375 1     0.0000000    17.2680143    28.4907700
    376 1     1.4390012    18.7070155    30.5258250
    377 1     0.0000000    17.2680143    32.5608800
    378 1     1.4390012    18.7070155    34.5959350
    379 1     0.0000000    17.2680143    36.6309900
    380 1     1.4390012    18.7070155    38.6660450
    381 1     0.0000000    17.2680143    40.7011000
    382 1     1.4390012    18.7070155    42.7361550
    383 1     0.0000000    17.2680143    44.7712100
    384 1     1.4390012    18.7070155    46.8062650
    385 1     0.0000000    17.2680143    48.8413200
    386 1     1.4390012    18.7070155    50.8763750
    387 1     0.0000000    17.2680143    52.9114300
    388 1     1.4390012    18.7070155    54.9464850
    389 1     0.0000000    17.2680143    56.9815400
    390 1     1.4390012    18.7070155    59.0165950
    391 1     0.0000000    17.2680143    61.0516500
    392 1     1.4390012    18.7070155    63.0867050
    393 1     0.0000000    17.2680143    65.1217600
    394 1     1.4390012    18.7070155    67.1568150
    395 1     0.0000000    17.2680143    69.1918700
    396 1     1.4390012    18.7070155    71.2269250
    397 1     0.0000000    17.2680143    73.2619800
    398 1     1.4390012    18.7070155    75.2970350
    399 1     0.0000000    17.2680143    77.3320900
    400 1     1.4390012    18.7070155    79.3671450
    401 1     0.0000000    17.2680143    81.4022000
    402 1     1.4390012    18.7070155    83.4372550
    403 1     0.0000000    17.2680143    85.4723100
    404 1     1.4390012    18.7070155    87.5073650
    405 1     0.0000000    17.2680143    89.5424200
    406 1     1.4390012    18.7070155    91.5774750
    407 4     0.0000000    17.2680143    93.6125300
    408 4     1.4390012    18.7070155    95.6475850
    409 3     0.0000000    17.2680143    97.6826400
    410 3     1.4390012    18.7070155    99.7176950
    411 3     0.0000000    17.2680143   101.7527500
    412 3     1.4390012    18.7070155   103.7878050
    413 3     0.0000000    17.2680143   105.8228600
    414 3     1.4390012    18.7070155   107.8579150
    415 3     0.0000000    17.2680143   109.8929700
    416 3     1.4390012    18.7070155   111.9280250
    417 3     0.0000000    17.2680143   113.9630800
    418 3     1.4390012    18.7070155   115.9981350
    419 3     0.0000000    17.2680143   118.0331900
    420 3     1.4390012    18.7070155   120.0682450
    421 5     0.0000000    20.1460167     0.00000000000
    422 5     1.4390012    21.5850179     2.03505500550
    423 5     0.0000000    20.1460167     4.07011001100
    424 5     1.4390012    21.5850179     6.10516501650
    425 1     0.0000000    20.1460167     8.1402200
    426 1     1.4390012    21.5850179    10.1752750
    427 1     0.0000000    20.1460167    12.2103300
    428 1     1.4390012    21.5850179    14.2453850
    429 1     0.0000000    20.1460167    16.2804400
    430 1     1.4390012    21.5850179    18.3154950
    431 1     0.0000000    20.1460167    20.3505500
    432 1     1.4390012    21.5850179    22.3856050
    433 1     0.0000000    20.1460167    24.4206600
    434 1     1.4390012    21.5850179    26.4557150
    435 1     0.0000000    20.1460167    28.4907700
    436 1     1.4390012    21.5850179    30.5258250
    437 1     0.0000000    20.1460167    32.5608800
    438 1     1.4390012    21.5850179    34.5959350
    439 1     0.0000000    20.1460167    36.6309900
    440 1     1.4390012    21.5850179    38.6660450
    441 1     0.0000000    20.1460167    40.7011000
    442 1     1.4390012    21.5850179    42.7361550
    443 1     0.0000000    20.1460167    44.7712100
    444 1     1.4390012    21.5850179    46.8062650
    445 1     0.0000000    20.1460167    48.8413200
    446 1     1.4390012    21.5850179    50.8763750
    447 1     0.0000000    20.1460167    52.9114300
    448 1     1.4390012    21.5850179    54.9464850
    449 1     0.0000000    20.1460167    56.9815400
    450 1     1.4390012    21.5850179    59.0165950
    451 1     0.0000000    20.1460167    61.0516500
    452 1     1.4390012    21.5850179    63.0867050
    453 1     0.0000000    20.1460167    65.1217600
    454 1     1.4390012    21.5850179    67.1568150
    455 1     0.0000000    20.1460167    69.1918700
    456 1     1.4390012    21.5850179    71.2269250
    457 1     0.0000000    20.1460167    73.2619800
    458 1     1.4390012    21.5850179    75.2970350
    459 1     0.0000000    20.1460167    77.3320900
    460 1     1.4390012    21.5850179    79.3671450
    461 1     0.0000000    20.1460167    81.4022000
    462 1     1.4390012    21.5850179    83.4372550
    463 1     0.0000000    20.1460167    85.4723100
    464 1     1.4390012    21.5850179    87.5073650
    465 1     0.0000000    20.1460167    89.5424200
    466 1     1.4390012    21.5850179    91.5774750
    467 4     0.0000000    20.1460167    93.6125300
    468 4     1.4390012    21.5850179    95.6475850
    469 3     0.0000000    20.1460167    97.6826400
    470 3     1.4390012    21.5850179    99.7176950
    471 3     0.0000000    20.1460167   101.7527500
    472 3     1.4390012    21.5850179   103.7878050
    473 3     0.0000000    20.1460167   105.8228600
    474 3     1.4390012    21.5850179   107.8579150
    475 3     0.0000000    20.1460167   109.8929700
    476 3     1.4390012    21.5850179   111.9280250
    477 3     0.0000000    20.1460167   113.9630800
    478 3     1.4390012    21.5850179   115.9981350
    479 3     0.0000000    20.1460167   118.0331900
    480 3     1.4390012    21.5850179   120.0682450
    481 5     2.8780024     0.0000000     0.00000000000
    482 5     4.3170036     1.4390012     2.03505500550
    483 5     2.8780024     0.0000000     4.07011001100
    484 5     4.3170036     1.4390012     6.10516501650
    485 1     2.8780024     0.0000000     8.1402200
    486 1     4.3170036     1.4390012    10.1752750
    487 1     2.8780024     0.0000000    12.2103300
    488 1     4.3170036     1.4390012    14.2453850
    489 1     2.8780024     0.0000000    16.2804400
    490 1     4.3170036     1.4390012    18.3154950
    491 1     2.8780024     0.0000000    20.3505500
    492 1     4.3170036     1.4390012    22.3856050
    493 1     2.8780024     0.0000000    24.4206600
    494 1     4.3170036     1.4390012    26.4557150
    495 1     2.8780024     0.0000000    28.4907700
    496 1     4.3170036     1.4390012    30.5258250
    497 1     2.8780024     0.0000000    32.5608800
    498 1     4.3170036     1.4390012    34.5959350
    499 1     2.8780024     0.0000000    36.6309900
    500 1     4.3170036     1.4390012    38.6660450
    501 1     2.8780024     0.0000000    40.7011000
    502 1     4.3170036     1.4390012    42.7361550
    503 1     2.8780024     0.0000000    44.7712100
    504 1     4.3170036     1.4390012    46.8062650
    505 1     2.8780024     0.0000000    48.8413200
    506 1     4.3170036     1.4390012    50.8763750
    507 1     2.8780024     0.0000000    52.9114300
    508 1     4.3170036     1.4390012    54.9464850
    509 1     2.8780024     0.0000000    56.9815400
    510 1     4.3170036     1.4390012    59.0165950
    511 1     2.8780024     0.0000000    61.0516500
    512 1     4.3170036     1.4390012    63.0867050
    513 1     2.8780024     0.0000000    65.1217600
    514 1     4.3170036     1.4390012    67.1568150
    515 1     2.8780024     0.0000000    69.1918700
    516 1     4.3170036     1.4390012    71.2269250
    517 1     2.8780024     0.0000000    73.2619800
    518 1     4.3170036     1.4390012    75.2970350
    519 1     2.8780024     0.0000000    77.3320900
    520 1     4.3170036     1.4390012    79.3671450
    521 1     2.8780024     0.0000000    81.4022000
    522 1     4.3170036     1.4390012    83.4372550
    523 1     2.8780024     0.0000000    85.4723100
    524 1     4.3170036     1.4390012    87.5073650
    525 1     2.8780024     0.0000000    89.5424200
    526 1     4.3170036     1.4390012    91.5774750
    527 4     2.8780024     0.0000000    93.6125300
    528 4     4.3170036     1.4390012    95.6475850
    529 3     2.8780024     0.0000000    97.6826400
    530 3     4.3170036     1.4390012    99.7176950
    531 3     2.8780024     0.0000000   101.7527500
    532 3     4.3170036     1.4390012   103.7878050
    533 3     2.8780024     0.0000000   105.8228600
    534 3     4.3170036     1.4390012   107.8579150
    535 3     2.8780024     0.0000000   109.8929700
    536 3     4.3170036     1.4390012   111.9280250
    537 3     2.8780024     0.0000000   113.9630800
    538 3     4.3170036     1.4390012   115.9981350
    539 3     2.8780024     0.0000000   118.0331900
    540 3     4.3170036     1.4390012   120.0682450
    541 5     2.8780024     2.8780024     0.00000000000
    542 5     4.3170036     4.3170036     2.03505500550
    543 5     2.8780024     2.8780024     4.07011001100
    544 5     4.3170036     4.3170036     6.10516501650
    545 1     2.8780024     2.8780024     8.1402200
    546 1     4.3170036     4.3170036    10.1752750
    547 1     2.8780024     2.8780024    12.2103300
    548 1     4.3170036     4.3170036    14.2453850
    549 1     2.8780024     2.8780024    16.2804400
    550 1     4.3170036     4.3170036    18.3154950
    551 1     2.8780024     2.8780024    20.3505500
    552 1     4.3170036     4.3170036    22.3856050
    553 1     2.8780024     2.8780024    24.4206600
    554 1     4.3170036     4.3170036    26.4557150
    555 1     2.8780024     2.8780024    28.4907700
    556 1     4.3170036     4.3170036    30.5258250
    557 1     2.8780024     2.8780024    32.5608800
    558 1     4.3170036     4.3170036    34.5959350
    559 1     2.8780024     2.8780024    36.6309900
    560 1     4.3170036     4.3170036    38.6660450
    561 1     2.8780024     2.8780024    40.7011000
    562 1     4.3170036     4.3170036    42.7361550
    563 1     2.8780024     2.8780024    44.7712100
    564 1     4.3170036     4.3170036    46.8062650
    565 1     2.8780024     2.8780024    48.8413200
    566 1     4.3170036     4.3170036    50.8763750
    567 1     2.8780024     2.8780024    52.9114300
    568 1     4.3170036     4.3170036    54.9464850
    569 1     2.8780024     2.8780024    56.9815400