
        1024 atoms

5 atom types

0.0         23.024019 xlo xhi
0.0         23.024019 ylo yhi
      -13.024352       42.329142 zlo zhi

Masses

1 1.000000
2 1.000000
3 1.000000
4 1.000000
5 1.000000

Atoms
 
      1 2     0.0000000     0.0000000     0.0000000    0    0    3     0.0000000     0.0000000     0.0000000
      2 2     1.4390012     1.4390012     2.0350550    0    0    2     1.4390012     1.4390012     2.0350550
      3 4     0.0000000     0.0000000     4.0701100    0    0    1     0.0000000     0.0000000     4.0701100
      4 4     1.4390012     1.4390012     6.1051650    0    0    0     1.4390012     1.4390012     6.1051650
      5 3     0.0000000     0.0000000     8.1402200 0 0 0 0.0 0.0 0.0
      6 3     1.4390012     1.4390012    10.1752750 0 0 0 0.0 0.0 0.0
      7 3     0.0000000     0.0000000    12.2103300 0 0 0 0.0 0.0 0.0
      8 3     1.4390012     1.4390012    14.2453850 0 0 0 0.0 0.0 0.0
      9 3     0.0000000     0.0000000    16.2804400 0 0 0 0.0 0.0 0.0
     10 3     1.4390012     1.4390012    18.3154950 0 0 0 0.0 0.0 0.0
     11 3     0.0000000     0.0000000    20.3505500 0 0 0 0.0 0.0 0.0
     12 3     1.4390012     1.4390012    22.3856050 0 0 0 0.0 0.0 0.0
     13 3     0.0000000     0.0000000    24.4206600 0 0 0 0.0 0.0 0.0
     14 3     1.4390012     1.4390012    26.4557150 0 0 0 0.0 0.0 0.0
     15 3     0.0000000     0.0000000    28.4907700 0 0 0 0.0 0.0 0.0
     16 3     1.4390012     1.4390012    30.5258250 0 0 0 0.0 0.0 0.0
     17 2     0.0000000     2.8780024     0.0000000    0    1    3     0.0000000     2.8780024     0.0000000
     18 2     1.4390012     4.3170036     2.0350550    0    1    2     1.4390012     4.3170036     2.0350550
     19 4     0.0000000     2.8780024     4.0701100    0    1    1     0.0000000     2.8780024     4.0701100
     20 4     1.4390012     4.3170036     6.1051650    0    1    0     1.4390012     4.3170036     6.1051650
     21 3     0.0000000     2.8780024     8.1402200 0 0 0 0.0 0.0 0.0
     22 3     1.4390012     4.3170036    10.1752750 0 0 0 0.0 0.0 0.0
     23 3     0.0000000     2.8780024    12.2103300 0 0 0 0.0 0.0 0.0
     24 3     1.4390012     4.3170036    14.2453850 0 0 0 0.0 0.0 0.0
     25 3     0.0000000     2.8780024    16.2804400 0 0 0 0.0 0.0 0.0
     26 3     1.4390012     4.3170036    18.3154950 0 0 0 0.0 0.0 0.0
     27 3     0.0000000     2.8780024    20.3505500 0 0 0 0.0 0.0 0.0
     28 3     1.4390012     4.3170036    22.3856050 0 0 0 0.0 0.0 0.0
     29 3     0.0000000     2.8780024    24.4206600 0 0 0 0.0 0.0 0.0
     30 3     1.4390012     4.3170036    26.4557150 0 0 0 0.0 0.0 0.0
     31 3     0.0000000     2.8780024    28.4907700 0 0 0 0.0 0.0 0.0
     32 3     1.4390012     4.3170036    30.5258250 0 0 0 0.0 0.0 0.0
     33 2     0.0000000     5.7560048     0.0000000    0    2    3     0.0000000     5.7560048     0.0000000
     34 2     1.4390012     7.1950060     2.0350550    0    2    2     1.4390012     7.1950060     2.0350550
     35 4     0.0000000     5.7560048     4.0701100    0    2    1     0.0000000     5.7560048     4.0701100
     36 4     1.4390012     7.1950060     6.1051650    0    2    0     1.4390012     7.1950060     6.1051650
     37 3     0.0000000     5.7560048     8.1402200 0 0 0 0.0 0.0 0.0
     38 3     1.4390012     7.1950060    10.1752750 0 0 0 0.0 0.0 0.0
     39 3     0.0000000     5.7560048    12.2103300 0 0 0 0.0 0.0 0.0
     40 3     1.4390012     7.1950060    14.2453850 0 0 0 0.0 0.0 0.0
     41 3     0.0000000     5.7560048    16.2804400 0 0 0 0.0 0.0 0.0
     42 3     1.4390012     7.1950060    18.3154950 0 0 0 0.0 0.0 0.0
     43 3     0.0000000     5.7560048    20.3505500 0 0 0 0.0 0.0 0.0
     44 3     1.4390012     7.1950060    22.3856050 0 0 0 0.0 0.0 0.0
     45 3     0.0000000     5.7560048    24.4206600 0 0 0 0.0 0.0 0.0
     46 3     1.4390012     7.1950060    26.4557150 0 0 0 0.0 0.0 0.0
     47 3     0.0000000     5.7560048    28.4907700 0 0 0 0.0 0.0 0.0
     48 3     1.4390012     7.1950060    30.5258250 0 0 0 0.0 0.0 0.0
     49 2     0.0000000     8.6340071     0.0000000    0    3    3     0.0000000     8.6340071     0.0000000
     50 2     1.4390012    10.0730083     2.0350550    0    3    2     1.4390012    10.0730083     2.0350550
     51 4     0.0000000     8.6340071     4.0701100    0    3    1     0.0000000     8.6340071     4.0701100
     52 4     1.4390012    10.0730083     6.1051650    0    3    0     1.4390012    10.0730083     6.1051650
     53 3     0.0000000     8.6340071     8.1402200 0 0 0 0.0 0.0 0.0
     54 3     1.4390012    10.0730083    10.1752750 0 0 0 0.0 0.0 0.0
     55 3     0.0000000     8.6340071    12.2103300 0 0 0 0.0 0.0 0.0
     56 3     1.4390012    10.0730083    14.2453850 0 0 0 0.0 0.0 0.0
     57 3     0.0000000     8.6340071    16.2804400 0 0 0 0.0 0.0 0.0
     58 3     1.4390012    10.0730083    18.3154950 0 0 0 0.0 0.0 0.0
     59 3     0.0000000     8.6340071    20.3505500 0 0 0 0.0 0.0 0.0
     60 3     1.4390012    10.0730083    22.3856050 0 0 0 0.0 0.0 0.0
     61 3     0.0000000     8.6340071    24.4206600 0 0 0 0.0 0.0 0.0
     62 3     1.4390012    10.0730083    26.4557150 0 0 0 0.0 0.0 0.0
     63 3     0.0000000     8.6340071    28.4907700 0 0 0 0.0 0.0 0.0
     64 3     1.4390012    10.0730083    30.5258250 0 0 0 0.0 0.0 0.0
     65 2     0.0000000    11.5120095     0.0000000    0    4    3     0.0000000    11.5120095     0.0000000
     66 2     1.4390012    12.9510107     2.0350550    0    4    2     1.4390012    12.9510107     2.0350550
     67 4     0.0000000    11.5120095     4.0701100    0    4    1     0.0000000    11.5120095     4.0701100
     68 4     1.4390012    12.9510107     6.1051650    0    4    0     1.4390012    12.9510107     6.1051650
     69 3     0.0000000    11.5120095     8.1402200 0 0 0 0.0 0.0 0.0
     70 3     1.4390012    12.9510107    10.1752750 0 0 0 0.0 0.0 0.0
     71 3     0.0000000    11.5120095    12.2103300 0 0 0 0.0 0.0 0.0
     72 3     1.4390012    12.9510107    14.2453850 0 0 0 0.0 0.0 0.0
     73 3     0.0000000    11.5120095    16.2804400 0 0 0 0.0 0.0 0.0
     74 3     1.4390012    12.9510107    18.3154950 0 0 0 0.0 0.0 0.0
     75 3     0.0000000    11.5120095    20.3505500 0 0 0 0.0 0.0 0.0
     76 3     1.4390012    12.9510107    22.3856050 0 0 0 0.0 0.0 0.0
     77 3     0.0000000    11.5120095    24.4206600 0 0 0 0.0 0.0 0.0
     78 3     1.4390012    12.9510107    26.4557150 0 0 0 0.0 0.0 0.0
     79 3     0.0000000    11.5120095    28.4907700 0 0 0 0.0 0.0 0.0
     80 3     1.4390012    12.9510107    30.5258250 0 0 0 0.0 0.0 0.0
     81 2     0.0000000    14.3900119     0.0000000    0    5    3     0.0000000    14.3900119     0.0000000
     82 2     1.4390012    15.8290131     2.0350550    0    5    2     1.4390012    15.8290131     2.0350550
     83 4     0.0000000    14.3900119     4.0701100    0    5    1     0.0000000    14.3900119     4.0701100
     84 4     1.4390012    15.8290131     6.1051650    0    5    0     1.4390012    15.8290131     6.1051650
     85 3     0.0000000    14.3900119     8.1402200 0 0 0 0.0 0.0 0.0
     86 3     1.4390012    15.8290131    10.1752750 0 0 0 0.0 0.0 0.0
     87 3     0.0000000    14.3900119    12.2103300 0 0 0 0.0 0.0 0.0
     88 3     1.4390012    15.8290131    14.2453850 0 0 0 0.0 0.0 0.0
     89 3     0.0000000    14.3900119    16.2804400 0 0 0 0.0 0.0 0.0
     90 3     1.4390012    15.8290131    18.3154950 0 0 0 0.0 0.0 0.0
     91 3     0.0000000    14.3900119    20.3505500 0 0 0 0.0 0.0 0.0
     92 3     1.4390012    15.8290131    22.3856050 0 0 0 0.0 0.0 0.0
     93 3     0.0000000    14.3900119    24.4206600 0 0 0 0.0 0.0 0.0
     94 3     1.4390012    15.8290131    26.4557150 0 0 0 0.0 0.0 0.0
     95 3     0.0000000    14.3900119    28.4907700 0 0 0 0.0 0.0 0.0
     96 3     1.4390012    15.8290131    30.5258250 0 0 0 0.0 0.0 0.0
     97 2     0.0000000    17.2680143     0.0000000    0    6    3     0.0000000    17.2680143     0.0000000
     98 2     1.4390012    18.7070155     2.0350550    0    6    2     1.4390012    18.7070155     2.0350550
     99 4     0.0000000    17.2680143     4.0701100    0    6    1     0.0000000    17.2680143     4.0701100
    100 4     1.4390012    18.7070155     6.1051650    0    6    0     1.4390012    18.7070155     6.1051650
    101 3     0.0000000    17.2680143     8.1402200 0 0 0 0.0 0.0 0.0
    102 3     1.4390012    18.7070155    10.1752750 0 0 0 0.0 0.0 0.0
    103 3     0.0000000    17.2680143    12.2103300 0 0 0 0.0 0.0 0.0
    104 3     1.4390012    18.7070155    14.2453850 0 0 0 0.0 0.0 0.0
    105 3     0.0000000    17.2680143    16.2804400 0 0 0 0.0 0.0 0.0
    106 3     1.4390012    18.7070155    18.3154950 0 0 0 0.0 0.0 0.0
    107 3     0.0000000    17.2680143    20.3505500 0 0 0 0.0 0.0 0.0
    108 3     1.4390012    18.7070155    22.3856050 0 0 0 0.0 0.0 0.0
    109 3     0.0000000    17.2680143    24.4206600 0 0 0 0.0 0.0 0.0
    110 3     1.4390012    18.7070155    26.4557150 0 0 0 0.0 0.0 0.0
    111 3     0.0000000    17.2680143    28.4907700 0 0 0 0.0 0.0 0.0
    112 3     1.4390012    18.7070155    30.5258250 0 0 0 0.0 0.0 0.0
    113 2     0.0000000    20.1460167     0.0000000    0    7    3     0.0000000    20.1460167     0.0000000
    114 2     1.4390012    21.5850179     2.0350550    0    7    2     1.4390012    21.5850179     2.0350550
    115 4     0.0000000    20.1460167     4.0701100    0    7    1     0.0000000    20.1460167     4.0701100
    116 4     1.4390012    21.5850179     6.1051650    0    7    0     1.4390012    21.5850179     6.1051650
    117 3     0.0000000    20.1460167     8.1402200 0 0 0 0.0 0.0 0.0
    118 3     1.4390012    21.5850179    10.1752750 0 0 0 0.0 0.0 0.0
    119 3     0.0000000    20.1460167    12.2103300 0 0 0 0.0 0.0 0.0
    120 3     1.4390012    21.5850179    14.2453850 0 0 0 0.0 0.0 0.0
    121 3     0.0000000    20.1460167    16.2804400 0 0 0 0.0 0.0 0.0
    122 3     1.4390012    21.5850179    18.3154950 0 0 0 0.0 0.0 0.0
    123 3     0.0000000    20.1460167    20.3505500 0 0 0 0.0 0.0 0.0
    124 3     1.4390012    21.5850179    22.3856050 0 0 0 0.0 0.0 0.0
    125 3     0.0000000    20.1460167    24.4206600 0 0 0 0.0 0.0 0.0
    126 3     1.4390012    21.5850179    26.4557150 0 0 0 0.0 0.0 0.0
    127 3     0.0000000    20.1460167    28.4907700 0 0 0 0.0 0.0 0.0
    128 3     1.4390012    21.5850179    30.5258250 0 0 0 0.0 0.0 0.0
    129 2     2.8780024     0.0000000     0.0000000    1    0    3     2.8780024     0.0000000     0.0000000
    130 2     4.3170036     1.4390012     2.0350550    1    0    2     4.3170036     1.4390012     2.0350550
    131 4     2.8780024     0.0000000     4.0701100    1    0    1     2.8780024     0.0000000     4.0701100
    132 4     4.3170036     1.4390012     6.1051650    1    0    0     4.3170036     1.4390012     6.1051650
    133 3     2.8780024     0.0000000     8.1402200 0 0 0 0.0 0.0 0.0
    134 3     4.3170036     1.4390012    10.1752750 0 0 0 0.0 0.0 0.0
    135 3     2.8780024     0.0000000    12.2103300 0 0 0 0.0 0.0 0.0
    136 3     4.3170036     1.4390012    14.2453850 0 0 0 0.0 0.0 0.0
    137 3     2.8780024     0.0000000    16.2804400 0 0 0 0.0 0.0 0.0
    138 3     4.3170036     1.4390012    18.3154950 0 0 0 0.0 0.0 0.0
    139 3     2.8780024     0.0000000    20.3505500 0 0 0 0.0 0.0 0.0
    140 3     4.3170036     1.4390012    22.3856050 0 0 0 0.0 0.0 0.0
    141 3     2.8780024     0.0000000    24.4206600 0 0 0 0.0 0.0 0.0
    142 3     4.3170036     1.4390012    26.4557150 0 0 0 0.0 0.0 0.0
    143 3     2.8780024     0.0000000    28.4907700 0 0 0 0.0 0.0 0.0
    144 3     4.3170036     1.4390012    30.5258250 0 0 0 0.0 0.0 0.0
    145 2     2.8780024     2.8780024     0.0000000    1    1    3     2.8780024     2.8780024     0.0000000
    146 2     4.3170036     4.3170036     2.0350550    1    1    2     4.3170036     4.3170036     2.0350550
    147 4     2.8780024     2.8780024     4.0701100    1    1    1     2.8780024     2.8780024     4.0701100
    148 4     4.3170036     4.3170036     6.1051650    1    1    0     4.3170036     4.3170036     6.1051650
    149 3     2.8780024     2.8780024     8.1402200 0 0 0 0.0 0.0 0.0
    150 3     4.3170036     4.3170036    10.1752750 0 0 0 0.0 0.0 0.0
    151 3     2.8780024     2.8780024    12.2103300 0 0 0 0.0 0.0 0.0
    152 3     4.3170036     4.3170036    14.2453850 0 0 0 0.0 0.0 0.0
    153 3     2.8780024     2.8780024    16.2804400 0 0 0 0.0 0.0 0.0
    154 3     4.3170036     4.3170036    18.3154950 0 0 0 0.0 0.0 0.0
    155 3     2.8780024     2.8780024    20.3505500 0 0 0 0.0 0.0 0.0
    156 3     4.3170036     4.3170036    22.3856050 0 0 0 0.0 0.0 0.0
    157 3     2.8780024     2.8780024    24.4206600 0 0 0 0.0 0.0 0.0
    158 3     4.3170036     4.3170036    26.4557150 0 0 0 0.0 0.0 0.0
    159 3     2.8780024     2.8780024    28.4907700 0 0 0 0.0 0.0 0.0
    160 3     4.3170036     4.3170036    30.5258250 0 0 0 0.0 0.0 0.0
    161 2     2.8780024     5.7560048     0.0000000    1    2    3     2.8780024     5.7560048     0.0000000
    162 2     4.3170036     7.1950060     2.0350550    1    2    2     4.3170036     7.1950060     2.0350550
    163 4     2.8780024     5.7560048     4.0701100    1    2    1     2.8780024     5.7560048     4.0701100
    164 4     4.3170036     7.1950060     6.1051650    1    2    0     4.3170036     7.1950060     6.1051650
    165 3     2.8780024     5.7560048     8.1402200 0 0 0 0.0 0.0 0.0
    166 3     4.3170036     7.1950060    10.1752750 0 0 0 0.0 0.0 0.0
    167 3     2.8780024     5.7560048    12.2103300 0 0 0 0.0 0.0 0.0
    168 3     4.3170036     7.1950060    14.2453850 0 0 0 0.0 0.0 0.0
    169 3     2.8780024     5.7560048    16.2804400 0 0 0 0.0 0.0 0.0
    170 3     4.3170036     7.1950060    18.3154950 0 0 0 0.0 0.0 0.0
    171 3     2.8780024     5.7560048    20.3505500 0 0 0 0.0 0.0 0.0
    172 3     4.3170036     7.1950060    22.3856050 0 0 0 0.0 0.0 0.0
    173 3     2.8780024     5.7560048    24.4206600 0 0 0 0.0 0.0 0.0
    174 3     4.3170036     7.1950060    26.4557150 0 0 0 0.0 0.0 0.0
    175 3     2.8780024     5.7560048    28.4907700 0 0 0 0.0 0.0 0.0
    176 3     4.3170036     7.1950060    30.5258250 0 0 0 0.0 0.0 0.0
    177 2     2.8780024     8.6340071     0.0000000    1    3    3     2.8780024     8.6340071     0.0000000
    178 2     4.3170036    10.0730083     2.0350550    1    3    2     4.3170036    10.0730083     2.0350550
    179 4     2.8780024     8.6340071     4.0701100    1    3    1     2.8780024     8.6340071     4.0701100
    180 4     4.3170036    10.0730083     6.1051650    1    3    0     4.3170036    10.0730083     6.1051650
    181 3     2.8780024     8.6340071     8.1402200 0 0 0 0.0 0.0 0.0
    182 3     4.3170036    10.0730083    10.1752750 0 0 0 0.0 0.0 0.0
    183 3     2.8780024     8.6340071    12.2103300 0 0 0 0.0 0.0 0.0
    184 3     4.3170036    10.0730083    14.2453850 0 0 0 0.0 0.0 0.0
    185 3     2.8780024     8.6340071    16.2804400 0 0 0 0.0 0.0 0.0
    186 3     4.3170036    10.0730083    18.3154950 0 0 0 0.0 0.0 0.0
    187 3     2.8780024     8.6340071    20.3505500 0 0 0 0.0 0.0 0.0
    188 3     4.3170036    10.0730083    22.3856050 0 0 0 0.0 0.0 0.0
    189 3     2.8780024     8.6340071    24.4206600 0 0 0 0.0 0.0 0.0
    190 3     4.3170036    10.0730083    26.4557150 0 0 0 0.0 0.0 0.0
    191 3     2.8780024     8.6340071    28.4907700 0 0 0 0.0 0.0 0.0
    192 3     4.3170036    10.0730083    30.5258250 0 0 0 0.0 0.0 0.0
    193 2     2.8780024    11.5120095     0.0000000    1    4    3     2.8780024    11.5120095     0.0000000
    194 2     4.3170036    12.9510107     2.0350550    1    4    2     4.3170036    12.9510107     2.0350550
    195 4     2.8780024    11.5120095     4.0701100    1    4    1     2.8780024    11.5120095     4.0701100
    196 4     4.3170036    12.9510107     6.1051650    1    4    0     4.3170036    12.9510107     6.1051650
    197 3     2.8780024    11.5120095     8.1402200 0 0 0 0.0 0.0 0.0
    198 3     4.3170036    12.9510107    10.1752750 0 0 0 0.0 0.0 0.0
    199 3     2.8780024    11.5120095    12.2103300 0 0 0 0.0 0.0 0.0
    200 3     4.3170036    12.9510107    14.2453850 0 0 0 0.0 0.0 0.0
    201 3     2.8780024    11.5120095    16.2804400 0 0 0 0.0 0.0 0.0
    202 3     4.3170036    12.9510107    18.3154950 0 0 0 0.0 0.0 0.0
    203 3     2.8780024    11.5120095    20.3505500 0 0 0 0.0 0.0 0.0
    204 3     4.3170036    12.9510107    22.3856050 0 0 0 0.0 0.0 0.0
    205 3     2.8780024    11.5120095    24.4206600 0 0 0 0.0 0.0 0.0
    206 3     4.3170036    12.9510107    26.4557150 0 0 0 0.0 0.0 0.0
    207 3     2.8780024    11.5120095    28.4907700 0 0 0 0.0 0.0 0.0
    208 3     4.3170036    12.9510107    30.5258250 0 0 0 0.0 0.0 0.0
    209 2     2.8780024    14.3900119     0.0000000    1    5    3     2.8780024    14.3900119     0.0000000
    210 2     4.3170036    15.8290131     2.0350550    1    5    2     4.3170036    15.8290131     2.0350550
    211 4     2.8780024    14.3900119     4.0701100    1    5    1     2.8780024    14.3900119     4.0701100
    212 4     4.3170036    15.8290131     6.1051650    1    5    0     4.3170036    15.8290131     6.1051650
    213 3     2.8780024    14.3900119     8.1402200 0 0 0 0.0 0.0 0.0
    214 3     4.3170036    15.8290131    10.1752750 0 0 0 0.0 0.0 0.0
    215 3     2.8780024    14.3900119    12.2103300 0 0 0 0.0 0.0 0.0
    216 3     4.3170036    15.8290131    14.2453850 0 0 0 0.0 0.0 0.0
    217 3     2.8780024    14.3900119    16.2804400 0 0 0 0.0 0.0 0.0
    218 3     4.3170036    15.8290131    18.3154950 0 0 0 0.0 0.0 0.0
    219 3     2.8780024    14.3900119    20.3505500 0 0 0 0.0 0.0 0.0
    220 3     4.3170036    15.8290131    22.3856050 0 0 0 0.0 0.0 0.0
    221 3     2.8780024    14.3900119    24.4206600 0 0 0 0.0 0.0 0.0
    222 3     4.3170036    15.8290131    26.4557150 0 0 0 0.0 0.0 0.0
    223 3     2.8780024    14.3900119    28.4907700 0 0 0 0.0 0.0 0.0
    224 3     4.3170036    15.8290131    30.5258250 0 0 0 0.0 0.0 0.0
    225 2     2.8780024    17.2680143     0.0000000    1    6    3     2.8780024    17.2680143     0.0000000
    226 2     4.3170036    18.7070155     2.0350550    1    6    2     4.3170036    18.7070155     2.0350550
    227 4     2.8780024    17.2680143     4.0701100    1    6    1     2.8780024    17.2680143     4.0701100
    228 4     4.3170036    18.7070155     6.1051650    1    6    0     4.3170036    18.7070155     6.1051650
    229 3     2.8780024    17.2680143     8.1402200 0 0 0 0.0 0.0 0.0
    230 3     4.3170036    18.7070155    10.1752750 0 0 0 0.0 0.0 0.0
    231 3     2.8780024    17.2680143    12.2103300 0 0 0 0.0 0.0 0.0
    232 3     4.3170036    18.7070155    14.2453850 0 0 0 0.0 0.0 0.0
    233 3     2.8780024    17.2680143    16.2804400 0 0 0 0.0 0.0 0.0
    234 3     4.3170036    18.7070155    18.3154950 0 0 0 0.0 0.0 0.0
    235 3     2.8780024    17.2680143    20.3505500 0 0 0 0.0 0.0 0.0
    236 3     4.3170036    18.7070155    22.3856050 0 0 0 0.0 0.0 0.0
    237 3     2.8780024    17.2680143    24.4206600 0 0 0 0.0 0.0 0.0
    238 3     4.3170036    18.7070155    26.4557150 0 0 0 0.0 0.0 0.0
    239 3     2.8780024    17.2680143    28.4907700 0 0 0 0.0 0.0 0.0
    240 3     4.3170036    18.7070155    30.5258250 0 0 0 0.0 0.0 0.0
    241 2     2.8780024    20.1460167     0.0000000    1    7    3     2.8780024    20.1460167     0.0000000
    242 2     4.3170036    21.5850179     2.0350550    1    7    2     4.3170036    21.5850179     2.0350550
    243 4     2.8780024    20.1460167     4.0701100    1    7    1     2.8780024    20.1460167     4.0701100
    244 4     4.3170036    21.5850179     6.1051650    1    7    0     4.3170036    21.5850179     6.1051650
    245 3     2.8780024    20.1460167     8.1402200 0 0 0 0.0 0.0 0.0
    246 3     4.3170036    21.5850179    10.1752750 0 0 0 0.0 0.0 0.0
    247 3     2.8780024    20.1460167    12.2103300 0 0 0 0.0 0.0 0.0
    248 3     4.3170036    21.5850179    14.2453850 0 0 0 0.0 0.0 0.0
    249 3     2.8780024    20.1460167    16.2804400 0 0 0 0.0 0.0 0.0
    250 3     4.3170036    21.5850179    18.3154950 0 0 0 0.0 0.0 0.0
    251 3     2.8780024    20.1460167    20.3505500 0 0 0 0.0 0.0 0.0
    252 3     4.3170036    21.5850179    22.3856050 0 0 0 0.0 0.0 0.0
    253 3     2.8780024    20.1460167    24.4206600 0 0 0 0.0 0.0 0.0
    254 3     4.3170036    21.5850179    26.4557150 0 0 0 0.0 0.0 0.0
    255 3     2.8780024    20.1460167    28.4907700 0 0 0 0.0 0.0 0.0
    256 3     4.3170036    21.5850179    30.5258250 0 0 0 0.0 0.0 0.0
    257 2     5.7560048     0.0000000     0.0000000    2    0    3     5.7560048     0.0000000     0.0000000
    258 2     7.1950060     1.4390012     2.0350550    2    0    2     7.1950060     1.4390012     2.0350550
    259 4     5.7560048     0.0000000     4.0701100    2    0    1     5.7560048     0.0000000     4.0701100
    260 4     7.1950060     1.4390012     6.1051650    2    0    0     7.1950060     1.4390012     6.1051650
    261 3     5.7560048     0.0000000     8.1402200 0 0 0 0.0 0.0 0.0
    262 3     7.1950060     1.4390012    10.1752750 0 0 0 0.0 0.0 0.0
    263 3     5.7560048     0.0000000    12.2103300 0 0 0 0.0 0.0 0.0
    264 3     7.1950060     1.4390012    14.2453850 0 0 0 0.0 0.0 0.0
    265 3     5.7560048     0.0000000    16.2804400 0 0 0 0.0 0.0 0.0
    266 3     7.1950060     1.4390012    18.3154950 0 0 0 0.0 0.0 0.0
    267 3     5.7560048     0.0000000    20.3505500 0 0 0 0.0 0.0 0.0
    268 3     7.1950060     1.4390012    22.3856050 0 0 0 0.0 0.0 0.0
    269 3     5.7560048     0.0000000    24.4206600 0 0 0 0.0 0.0 0.0
    270 3     7.1950060     1.4390012    26.4557150 0 0 0 0.0 0.0 0.0
    271 3     5.7560048     0.0000000    28.4907700 0 0 0 0.0 0.0 0.0
    272 3     7.1950060     1.4390012    30.5258250 0 0 0 0.0 0.0 0.0
    273 2     5.7560048     2.8780024     0.0000000    2    1    3     5.7560048     2.8780024     0.0000000
    274 2     7.1950060     4.3170036     2.0350550    2    1    2     7.1950060     4.3170036     2.0350550
    275 4     5.7560048     2.8780024     4.0701100    2    1    1     5.7560048     2.8780024     4.0701100
    276 4     7.1950060     4.3170036     6.1051650    2    1    0     7.1950060     4.3170036     6.1051650
    277 3     5.7560048     2.8780024     8.1402200 0 0 0 0.0 0.0 0.0
    278 3     7.1950060     4.3170036    10.1752750 0 0 0 0.0 0.0 0.0
    279 3     5.7560048     2.8780024    12.2103300 0 0 0 0.0 0.0 0.0
    280 3     7.1950060     4.3170036    14.2453850 0 0 0 0.0 0.0 0.0
    281 3     5.7560048     2.8780024    16.2804400 0 0 0 0.0 0.0 0.0
    282 3     7.1950060     4.3170036    18.3154950 0 0 0 0.0 0.0 0.0
    283 3     5.7560048     2.8780024    20.3505500 0 0 0 0.0 0.0 0.0
    284 3     7.1950060     4.3170036    22.3856050 0 0 0 0.0 0.0 0.0
    285 3     5.7560048     2.8780024    24.4206600 0 0 0 0.0 0.0 0.0
    286 3     7.1950060     4.3170036    26.4557150 0 0 0 0.0 0.0 0.0
    287 3     5.7560048     2.8780024    28.4907700 0 0 0 0.0 0.0 0.0
    288 3     7.1950060     4.3170036    30.5258250 0 0 0 0.0 0.0 0.0
    289 2     5.7560048     5.7560048     0.0000000    2    2    3     5.7560048     5.7560048     0.0000000
    290 2     7.1950060     7.1950060     2.0350550    2    2    2     7.1950060     7.1950060     2.0350550
    291 4     5.7560048     5.7560048     4.0701100    2    2    1     5.7560048     5.7560048     4.0701100
    292 4     7.1950060     7.1950060     6.1051650    2    2    0     7.1950060     7.1950060     6.1051650
    293 3     5.7560048     5.7560048     8.1402200 0 0 0 0.0 0.0 0.0
    294 3     7.1950060     7.1950060    10.1752750 0 0 0 0.0 0.0 0.0
    295 3     5.7560048     5.7560048    12.2103300 0 0 0 0.0 0.0 0.0
    296 3     7.1950060     7.1950060    14.2453850 0 0 0 0.0 0.0 0.0
    297 3     5.7560048     5.7560048    16.2804400 0 0 0 0.0 0.0 0.0
    298 3     7.1950060     7.1950060    18.3154950 0 0 0 0.0 0.0 0.0
    299 3     5.7560048     5.7560048    20.3505500 0 0 0 0.0 0.0 0.0
    300 3     7.1950060     7.1950060    22.3856050 0 0 0 0.0 0.0 0.0
    301 3     5.7560048     5.7560048    24.4206600 0 0 0 0.0 0.0 0.0
    302 3     7.1950060     7.1950060    26.4557150 0 0 0 0.0 0.0 0.0
    303 3     5.7560048     5.7560048    28.4907700 0 0 0 0.0 0.0 0.0
    304 3     7.1950060     7.1950060    30.5258250 0 0 0 0.0 0.0 0.0
    305 2     5.7560048     8.6340071     0.0000000    2    3    3     5.7560048     8.6340071     0.0000000
    306 2     7.1950060    10.0730083     2.0350550    2    3    2     7.1950060    10.0730083     2.0350550
    307 4     5.7560048     8.6340071     4.0701100    2    3    1     5.7560048     8.6340071     4.0701100
    308 4     7.1950060    10.0730083     6.1051650    2    3    0     7.1950060    10.0730083     6.1051650
    309 3     5.7560048     8.6340071     8.1402200 0 0 0 0.0 0.0 0.0
    310 3     7.1950060    10.0730083    10.1752750 0 0 0 0.0 0.0 0.0
    311 3     5.7560048     8.6340071    12.2103300 0 0 0 0.0 0.0 0.0
    312 3     7.1950060    10.0730083    14.2453850 0 0 0 0.0 0.0 0.0
    313 3     5.7560048     8.6340071    16.2804400 0 0 0 0.0 0.0 0.0
    314 3     7.1950060    10.0730083    18.3154950 0 0 0 0.0 0.0 0.0
    315 3     5.7560048     8.6340071    20.3505500 0 0 0 0.0 0.0 0.0
    316 3     7.1950060    10.0730083    22.3856050 0 0 0 0.0 0.0 0.0
    317 3     5.7560048     8.6340071    24.4206600 0 0 0 0.0 0.0 0.0
    318 3     7.1950060    10.0730083    26.4557150 0 0 0 0.0 0.0 0.0
    319 3     5.7560048     8.6340071    28.4907700 0 0 0 0.0 0.0 0.0
    320 3     7.1950060    10.0730083    30.5258250 0 0 0 0.0 0.0 0.0
    321 2     5.7560048    11.5120095     0.0000000    2    4    3     5.7560048    11.5120095     0.0000000
    322 2     7.1950060    12.9510107     2.0350550    2    4    2     7.1950060    12.9510107     2.0350550
    323 4     5.7560048    11.5120095     4.0701100    2    4    1     5.7560048    11.5120095     4.0701100
    324 4     7.1950060    12.9510107     6.1051650    2    4    0     7.1950060    12.9510107     6.1051650
    325 3     5.7560048    11.5120095     8.1402200 0 0 0 0.0 0.0 0.0
    326 3     7.1950060    12.9510107    10.1752750 0 0 0 0.0 0.0 0.0
    327 3     5.7560048    11.5120095    12.2103300 0 0 0 0.0 0.0 0.0
    328 3     7.1950060    12.9510107    14.2453850 0 0 0 0.0 0.0 0.0
    329 3     5.7560048    11.5120095    16.2804400 0 0 0 0.0 0.0 0.0
    330 3     7.1950060    12.9510107    18.3154950 0 0 0 0.0 0.0 0.0
    331 3     5.7560048    11.5120095    20.3505500 0 0 0 0.0 0.0 0.0
    332 3     7.1950060    12.9510107    22.3856050 0 0 0 0.0 0.0 0.0
    333 3     5.7560048    11.5120095    24.4206600 0 0 0 0.0 0.0 0.0
    334 3     7.1950060    12.9510107    26.4557150 0 0 0 0.0 0.0 0.0
    335 3     5.7560048    11.5120095    28.4907700 0 0 0 0.0 0.0 0.0
    336 3     7.1950060    12.9510107    30.5258250 0 0 0 0.0 0.0 0.0
    337 2     5.7560048    14.3900119     0.0000000    2    5    3     5.7560048    14.3900119     0.0000000
    338 2     7.1950060    15.8290131     2.0350550    2    5    2     7.1950060    15.8290131     2.0350550
    339 4     5.7560048    14.3900119     4.0701100    2    5    1     5.7560048    14.3900119     4.0701100
    340 4     7.1950060    15.8290131     6.1051650    2    5    0     7.1950060    15.8290131     6.1051650
    341 3     5.7560048    14.3900119     8.1402200 0 0 0 0.0 0.0 0.0
    342 3     7.1950060    15.8290131    10.1752750 0 0 0 0.0 0.0 0.0
    343 3     5.7560048    14.3900119    12.2103300 0 0 0 0.0 0.0 0.0
    344 3     7.1950060    15.8290131    14.2453850 0 0 0 0.0 0.0 0.0
    345 3     5.7560048    14.3900119    16.2804400 0 0 0 0.0 0.0 0.0
    346 3     7.1950060    15.8290131    18.3154950 0 0 0 0.0 0.0 0.0
    347 3     5.7560048    14.3900119    20.3505500 0 0 0 0.0 0.0 0.0
    348 3     7.1950060    15.8290131    22.3856050 0 0 0 0.0 0.0 0.0
    349 3     5.7560048    14.3900119    24.4206600 0 0 0 0.0 0.0 0.0
    350 3     7.1950060    15.8290131    26.4557150 0 0 0 0.0 0.0 0.0
    351 3     5.7560048    14.3900119    28.4907700 0 0 0 0.0 0.0 0.0
    352 3     7.1950060    15.8290131    30.5258250 0 0 0 0.0 0.0 0.0
    353 2     5.7560048    17.2680143     0.0000000    2    6    3     5.7560048    17.2680143     0.0000000
    354 2     7.1950060    18.7070155     2.0350550    2    6    2     7.1950060    18.7070155     2.0350550
    355 4     5.7560048    17.2680143     4.0701100    2    6    1     5.7560048    17.2680143     4.0701100
    356 4     7.1950060    18.7070155     6.1051650    2    6    0     7.1950060    18.7070155     6.1051650
    357 3     5.7560048    17.2680143     8.1402200 0 0 0 0.0 0.0 0.0
    358 3     7.1950060    18.7070155    10.1752750 0 0 0 0.0 0.0 0.0
    359 3     5.7560048    17.2680143    12.2103300 0 0 0 0.0 0.0 0.0
    360 3     7.1950060    18.7070155    14.2453850 0 0 0 0.0 0.0 0.0
    361 3     5.7560048    17.2680143    16.2804400 0 0 0 0.0 0.0 0.0
    362 3     7.1950060    18.7070155    18.3154950 0 0 0 0.0 0.0 0.0
    363 3     5.7560048    17.2680143    20.3505500 0 0 0 0.0 0.0 0.0
    364 3     7.1950060    18.7070155    22.3856050 0 0 0 0.0 0.0 0.0
    365 3     5.7560048    17.2680143    24.4206600 0 0 0 0.0 0.0 0.0
    366 3     7.1950060    18.7070155    26.4557150 0 0 0 0.0 0.0 0.0
    367 3     5.7560048    17.2680143    28.4907700 0 0 0 0.0 0.0 0.0
    368 3     7.1950060    18.7070155    30.5258250 0 0 0 0.0 0.0 0.0
    369 2     5.7560048    20.1460167     0.0000000    2    7    3     5.7560048    20.1460167     0.0000000
    370 2     7.1950060    21.5850179     2.0350550    2    7    2     7.1950060    21.5850179     2.0350550
    371 4     5.7560048    20.1460167     4.0701100    2    7    1     5.7560048    20.1460167     4.0701100
    372 4     7.1950060    21.5850179     6.1051650    2    7    0     7.1950060    21.5850179     6.1051650