16x9x1 FCC(111) orthogonal, long side along y

       288  atoms

         3  atom types

     0.00000000     17.81136000 xlo xhi
   -10.00000000     20.00000000 ylo yhi
    -0.00010000      0.00010000 zlo zhi

Atoms

  1  3      0.00000000      0.00000000      0.00000000
  2  3      1.11321000      0.00000000      0.00000000
  3  3      2.22642000      0.00000000      0.00000000
  4  3      3.33963000      0.00000000      0.00000000
  5  3      4.45284000      0.00000000      0.00000000
  6  3      5.56605000      0.00000000      0.00000000
  7  3      6.67926000      0.00000000      0.00000000
  8  3      7.79247000      0.00000000      0.00000000
  9  3      8.90568000      0.00000000      0.00000000
 10  3     10.01889000      0.00000000      0.00000000
 11  3     11.13210000      0.00000000      0.00000000
 12  3     12.24531000      0.00000000      0.00000000
 13  3     13.35852000      0.00000000      0.00000000
 14  3     14.47173000      0.00000000      0.00000000
 15  3     15.58494000      0.00000000      0.00000000
 16  3     16.69815000      0.00000000      0.00000000
 17  2      0.00000000      1.92813628      0.00000000
 18  2      1.11321000      1.92813628      0.00000000
 19  2      2.22642000      1.92813628      0.00000000
 20  2      3.33963000      1.92813628      0.00000000
 21  2      4.45284000      1.92813628      0.00000000
 22  2      5.56605000      1.92813628      0.00000000
 23  2      6.67926000      1.92813628      0.00000000
 24  2      7.79247000      1.92813628      0.00000000
 25  2      8.90568000      1.92813628      0.00000000
 26  2     10.01889000      1.92813628      0.00000000
 27  2     11.13210000      1.92813628      0.00000000
 28  2     12.24531000      1.92813628      0.00000000
 29  2     13.35852000      1.92813628      0.00000000
 30  2     14.47173000      1.92813628      0.00000000
 31  2     15.58494000      1.92813628      0.00000000
 32  2     16.69815000      1.92813628      0.00000000
 33  2      0.00000000      3.85627256      0.00000000
 34  2      1.11321000      3.85627256      0.00000000
 35  2      2.22642000      3.85627256      0.00000000
 36  2      3.33963000      3.85627256      0.00000000
 37  2      4.45284000      3.85627256      0.00000000
 38  2      5.56605000      3.85627256      0.00000000
 39  2      6.67926000      3.85627256      0.00000000
 40  2      7.79247000      3.85627256      0.00000000
 41  2      8.90568000      3.85627256      0.00000000
 42  2     10.01889000      3.85627256      0.00000000
 43  2     11.13210000      3.85627256      0.00000000
 44  2     12.24531000      3.85627256      0.00000000
 45  2     13.35852000      3.85627256      0.00000000
 46  2     14.47173000      3.85627256      0.00000000
 47  2     15.58494000      3.85627256      0.00000000
 48  2     16.69815000      3.85627256      0.00000000
 49  2      0.00000000      5.78440884      0.00000000
 50  2      1.11321000      5.78440884      0.00000000
 51  2      2.22642000      5.78440884      0.00000000
 52  2      3.33963000      5.78440884      0.00000000
 53  2      4.45284000      5.78440884      0.00000000
 54  2      5.56605000      5.78440884      0.00000000
 55  2      6.67926000      5.78440884      0.00000000
 56  2      7.79247000      5.78440884      0.00000000
 57  2      8.90568000      5.78440884      0.00000000
 58  2     10.01889000      5.78440884      0.00000000
 59  2     11.13210000      5.78440884      0.00000000
 60  2     12.24531000      5.78440884      0.00000000
 61  2     13.35852000      5.78440884      0.00000000
 62  2     14.47173000      5.78440884      0.00000000
 63  2     15.58494000      5.78440884      0.00000000
 64  2     16.69815000      5.78440884      0.00000000
 65  2      0.00000000      7.71254512      0.00000000
 66  2      1.11321000      7.71254512      0.00000000
 67  2      2.22642000      7.71254512      0.00000000
 68  2      3.33963000      7.71254512      0.00000000
 69  2      4.45284000      7.71254512      0.00000000
 70  2      5.56605000      7.71254512      0.00000000
 71  2      6.67926000      7.71254512      0.00000000
 72  2      7.79247000      7.71254512      0.00000000
 73  2      8.90568000      7.71254512      0.00000000
 74  2     10.01889000      7.71254512      0.00000000
 75  2     11.13210000      7.71254512      0.00000000
 76  2     12.24531000      7.71254512      0.00000000
 77  2     13.35852000      7.71254512      0.00000000
 78  2     14.47173000      7.71254512      0.00000000
 79  2     15.58494000      7.71254512      0.00000000
 80  2     16.69815000      7.71254512      0.00000000
 81  2      0.00000000      9.64068140      0.00000000
 82  2      1.11321000      9.64068140      0.00000000
 83  2      2.22642000      9.64068140      0.00000000
 84  2      3.33963000      9.64068140      0.00000000
 85  2      4.45284000      9.64068140      0.00000000
 86  2      5.56605000      9.64068140      0.00000000
 87  2      6.67926000      9.64068140      0.00000000
 88  2      7.79247000      9.64068140      0.00000000
 89  2      8.90568000      9.64068140      0.00000000
 90  2     10.01889000      9.64068140      0.00000000
 91  2     11.13210000      9.64068140      0.00000000
 92  2     12.24531000      9.64068140      0.00000000
 93  2     13.35852000      9.64068140      0.00000000
 94  2     14.47173000      9.64068140      0.00000000
 95  2     15.58494000      9.64068140      0.00000000
 96  2     16.69815000      9.64068140      0.00000000
 97  2      0.00000000     11.56881768      0.00000000
 98  2      1.11321000     11.56881768      0.00000000
 99  2      2.22642000     11.56881768      0.00000000
100  2      3.33963000     11.56881768      0.00000000
101  2      4.45284000     11.56881768      0.00000000
102  2      5.56605000     11.56881768      0.00000000
103  2      6.67926000     11.56881768      0.00000000
104  2      7.79247000     11.56881768      0.00000000
105  2      8.90568000     11.56881768      0.00000000
106  2     10.01889000     11.56881768      0.00000000
107  2     11.13210000     11.56881768      0.00000000
108  2     12.24531000     11.56881768      0.00000000
109  2     13.35852000     11.56881768      0.00000000
110  2     14.47173000     11.56881768      0.00000000
111  2     15.58494000     11.56881768      0.00000000
112  2     16.69815000     11.56881768      0.00000000
113  2      0.00000000     13.49695396      0.00000000
114  2      1.11321000     13.49695396      0.00000000
115  2      2.22642000     13.49695396      0.00000000
116  2      3.33963000     13.49695396      0.00000000
117  2      4.45284000     13.49695396      0.00000000
118  2      5.56605000     13.49695396      0.00000000
119  2      6.67926000     13.49695396      0.00000000
120  2      7.79247000     13.49695396      0.00000000
121  2      8.90568000     13.49695396      0.00000000
122  2     10.01889000     13.49695396      0.00000000
123  2     11.13210000     13.49695396      0.00000000
124  2     12.24531000     13.49695396      0.00000000
125  2     13.35852000     13.49695396      0.00000000
126  2     14.47173000     13.49695396      0.00000000
127  2     15.58494000     13.49695396      0.00000000
128  2     16.69815000     13.49695396      0.00000000
129  2      0.00000000     15.42509024      0.00000000
130  2      1.11321000     15.42509024      0.00000000
131  2      2.22642000     15.42509024      0.00000000
132  2      3.33963000     15.42509024      0.00000000
133  2      4.45284000     15.42509024      0.00000000
134  2      5.56605000     15.42509024      0.00000000
135  2      6.67926000     15.42509024      0.00000000
136  2      7.79247000     15.42509024      0.00000000
137  2      8.90568000     15.42509024      0.00000000
138  2     10.01889000     15.42509024      0.00000000
139  2     11.13210000     15.42509024      0.00000000
140  2     12.24531000     15.42509024      0.00000000
141  2     13.35852000     15.42509024      0.00000000
142  2     14.47173000     15.42509024      0.00000000
143  2     15.58494000     15.42509024      0.00000000
144  2     16.69815000     15.42509024      0.00000000
145  2      0.55660500      0.96406814      0.00000000
146  2      1.66981500      0.96406814      0.00000000
147  2      2.78302500      0.96406814      0.00000000
148  2      3.89623500      0.96406814      0.00000000
149  2      5.00944500      0.96406814      0.00000000
150  2      6.12265500      0.96406814      0.00000000
151  2      7.23586500      0.96406814      0.00000000
152  2      8.34907500      0.96406814      0.00000000
153  2      9.46228500      0.96406814      0.00000000
154  2     10.57549500      0.96406814      0.00000000
155  2     11.68870500      0.96406814      0.00000000
156  2     12.80191500      0.96406814      0.00000000
157  2     13.91512500      0.96406814      0.00000000
158  2     15.02833500      0.96406814      0.00000000
159  2     16.14154500      0.96406814      0.00000000
160  2     17.25475500      0.96406814      0.00000000
161  2      0.55660500      2.89220442      0.00000000
162  2      1.66981500      2.89220442      0.00000000
163  2      2.78302500      2.89220442      0.00000000
164  2      3.89623500      2.89220442      0.00000000
165  2      5.00944500      2.89220442      0.00000000
166  2      6.12265500      2.89220442      0.00000000
167  2      7.23586500      2.89220442      0.00000000
168  2      8.34907500      2.89220442      0.00000000
169  2      9.46228500      2.89220442      0.00000000
170  2     10.57549500      2.89220442      0.00000000
171  2     11.68870500      2.89220442      0.00000000
172  2     12.80191500      2.89220442      0.00000000
173  2     13.91512500      2.89220442      0.00000000
174  2     15.02833500      2.89220442      0.00000000
175  2     16.14154500      2.89220442      0.00000000
176  2     17.25475500      2.89220442      0.00000000
177  2      0.55660500      4.82034070      0.00000000
178  2      1.66981500      4.82034070      0.00000000
179  2      2.78302500      4.82034070      0.00000000
180  2      3.89623500      4.82034070      0.00000000
181  2      5.00944500      4.82034070      0.00000000
182  2      6.12265500      4.82034070      0.00000000
183  2      7.23586500      4.82034070      0.00000000
184  2      8.34907500      4.82034070      0.00000000
185  2      9.46228500      4.82034070      0.00000000
186  2     10.57549500      4.82034070      0.00000000
187  2     11.68870500      4.82034070      0.00000000
188  2     12.80191500      4.82034070      0.00000000
189  2     13.91512500      4.82034070      0.00000000
190  2     15.02833500      4.82034070      0.00000000
191  2     16.14154500      4.82034070      0.00000000
192  2     17.25475500      4.82034070      0.00000000
193  2      0.55660500      6.74847698      0.00000000
194  2      1.66981500      6.74847698      0.00000000
195  2      2.78302500      6.74847698      0.00000000
196  2      3.89623500      6.74847698      0.00000000
197  2      5.00944500      6.74847698      0.00000000
198  2      6.12265500      6.74847698      0.00000000
199  2      7.23586500      6.74847698      0.00000000
200  2      8.34907500      6.74847698      0.00000000
201  2      9.46228500      6.74847698      0.00000000
202  2     10.57549500      6.74847698      0.00000000
203  2     11.68870500      6.74847698      0.00000000
204  2     12.80191500      6.74847698      0.00000000
205  2     13.91512500      6.74847698      0.00000000
206  2     15.02833500      6.74847698      0.00000000
207  2     16.14154500      6.74847698      0.00000000
208  2     17.25475500      6.74847698      0.00000000
209  2      0.55660500      8.67661326      0.00000000
210  2      1.66981500      8.67661326      0.00000000
211  2      2.78302500      8.67661326      0.00000000
212  2      3.89623500      8.67661326      0.00000000
213  2      5.00944500      8.67661326      0.00000000
214  2      6.12265500      8.67661326      0.00000000
215  2      7.23586500      8.67661326      0.00000000
216  2      8.34907500      8.67661326      0.00000000
217  2      9.46228500      8.67661326      0.00000000
218  2     10.57549500      8.67661326      0.00000000
219  2     11.68870500      8.67661326      0.00000000
220  2     12.80191500      8.67661326      0.00000000
221  2     13.91512500      8.67661326      0.00000000
222  2     15.02833500      8.67661326      0.00000000
223  2     16.14154500      8.67661326      0.00000000
224  2     17.25475500      8.67661326      0.00000000
225  2      0.55660500     10.60474954      0.00000000
226  2      1.66981500     10.60474954      0.00000000
227  2      2.78302500     10.60474954      0.00000000
228  2      3.89623500     10.60474954      0.00000000
229  2      5.00944500     10.60474954      0.00000000
230  2      6.12265500     10.60474954      0.00000000
231  2      7.23586500     10.60474954      0.00000000
232  2      8.34907500     10.60474954      0.00000000
233  2      9.46228500     10.60474954      0.00000000
234  2     10.57549500     10.60474954      0.00000000
235  2     11.68870500     10.60474954      0.00000000
236  2     12.80191500     10.60474954      0.00000000
237  2     13.91512500     10.60474954      0.00000000
238  2     15.02833500     10.60474954      0.00000000
239  2     16.14154500     10.60474954      0.00000000
240  2     17.25475500     10.60474954      0.00000000
241  2      0.55660500     12.53288582      0.00000000
242  2      1.66981500     12.53288582      0.00000000
243  2      2.78302500     12.53288582      0.00000000
244  2      3.89623500     12.53288582      0.00000000
245  2      5.00944500     12.53288582      0.00000000
246  2      6.12265500     12.53288582      0.00000000
247  2      7.23586500     12.53288582      0.00000000
248  2      8.34907500     12.53288582      0.00000000
249  2      9.46228500     12.53288582      0.00000000
250  2     10.57549500     12.53288582      0.00000000
251  2     11.68870500     12.53288582      0.00000000
252  2     12.80191500     12.53288582      0.00000000
253  2     13.91512500     12.53288582      0.00000000
254  2     15.02833500     12.53288582      0.00000000
255  2     16.14154500     12.53288582      0.00000000
256  2     17.25475500     12.53288582      0.00000000
257  2      0.55660500     14.46102210      0.00000000
258  2      1.66981500     14.46102210      0.00000000
259  2      2.78302500     14.46102210      0.00000000
260  2      3.89623500     14.46102210      0.00000000
261  2      5.00944500     14.46102210      0.00000000
262  2      6.12265500     14.46102210      0.00000000
263  2      7.23586500     14.46102210      0.00000000
264  2      8.34907500     14.46102210      0.00000000
265  2      9.46228500     14.46102210      0.00000000
266  2     10.57549500     14.46102210      0.00000000
267  2     11.68870500     14.46102210      0.00000000
268  2     12.80191500     14.46102210      0.00000000
269  2     13.91512500     14.46102210      0.00000000
270  2     15.02833500     14.46102210      0.00000000
271  2     16.14154500     14.46102210      0.00000000
272  2     17.25475500     14.46102210      0.00000000
273  1      0.55660500     16.38915838      0.00000000
274  1      1.66981500     16.38915838      0.00000000
275  1      2.78302500     16.38915838      0.00000000
276  1      3.89623500     16.38915838      0.00000000
277  1      5.00944500     16.38915838      0.00000000
278  1      6.12265500     16.38915838      0.00000000
279  1      7.23586500     16.38915838      0.00000000
280  1      8.34907500     16.38915838      0.00000000
281  1      9.46228500     16.38915838      0.00000000
282  1     10.57549500     16.38915838      0.00000000
283  1     11.68870500     16.38915838      0.00000000
284  1     12.80191500     16.38915838      0.00000000
285  1     13.91512500     16.38915838      0.00000000
286  1     15.02833500     16.38915838      0.00000000
287  1     16.14154500     16.38915838      0.00000000
288  1     17.25475500     16.38915838      0.00000000
