LAMMPS (7 Jul 2009)
# 2D LJ simulation
dimension      2
boundary       p f p
units          lj
atom_style     atomic

# Lattice geometry
read_data      data.pos
  orthogonal box = (0 -10 -0.0001) to (17.8114 20 0.0001)
  1 by 1 by 1 processor grid
  288 atoms

#define groups
group          upper  type 1
16 atoms in group upper
group          slab   type 2
256 atoms in group slab
group          bottom type 3
16 atoms in group bottom
group          mobile union slab bottom
272 atoms in group mobile

# Lennard-Jones interactions
pair_style     lj/cut 2.5
pair_coeff     * * 1.0 1.0 2.5

# masses
mass           1 1.0
mass           2 1.0
mass           3 1.0

# Exclude interactions between atoms in fixed group upper
neighbor       0.5 nsq
neigh_modify   exclude type 1 1

#Langevin random seed, temperature and damping variable
variable       r equal 23827
variable       t equal 0.01
variable       d equal 0.1

# initial velocities and temperature control
compute        MyTemp mobile temp/partial 1 1 0
velocity       mobile create $t 4713 mom yes rot yes dist gaussian temp MyTemp
velocity       mobile create 0.01 4713 mom yes rot yes dist gaussian temp MyTemp
velocity       upper set 0 0 0 units box

# define fixes
fix            1 mobile langevin $t $t $d $r
fix            1 mobile langevin 0.01 $t $d $r
fix            1 mobile langevin 0.01 0.01 $d $r
fix            1 mobile langevin 0.01 0.01 0.1 $r
fix            1 mobile langevin 0.01 0.01 0.1 23827
fix_modify     1 temp MyTemp
fix            2 mobile nve
# Elastic stiffness coefficients measurement, 1 atom per unit cell
fix            3 bottom gfc 20 250000 500000 LJ2D_prim su 1.11321 0
fix_modify     3 temp MyTemp
# complex lattice with 2 atoms per unit cell, for comparison
fix            4 bottom gfc 20 250000 500000 LJ2D_comp su 2.22642 0
fix_modify     4 temp MyTemp
# Ensure 2D simulation
fix            5 all enforce2d

# Customize thermo output
thermo         10000
thermo_style   custom step temp pe ke etotal pxx pyy pxy press

# write snapshot every 1000th timestep in "LAMMPS" format.
# This file can be read in with VMD and viewed as a movie
dump           1 all atom 50000 dump2D_GFC.lammpstrj 

# run for these many timesteps
run 	         10500000
Memory usage per processor = 1.30576 Mbytes
Step Temp PotEng KinEng TotEng Pxx Pyy Pxy Press 
       0 0.0094425087   -3.1266845 0.0094097222   -3.1172748 0.0068775736  0.027363683 -0.00019985295  0.017120628 
   10000  0.010763652   -3.1177033  0.010726279    -3.106977  0.027414927 0.0067505716   0.03329643  0.017082749 
   20000 0.0086445966   -3.1180532 0.0086145806   -3.1094386  0.014687958 -0.032077589 0.0066737582 -0.0086948159 
   30000 0.0093452212   -3.1179845 0.0093127725   -3.1086717  0.029313413  0.014338151 -0.021050334  0.021825782 
   40000 0.0090705114   -3.1164541 0.0090390166   -3.1074151  0.045580687   0.03644294 -0.020029014  0.041011813 
   50000 0.0092758272   -3.1179504 0.0092436194   -3.1087067   0.01397629 -0.028372717 -0.0047618885 -0.0071982134 
   60000 0.0093359711   -3.1174387 0.0093035546   -3.1081351  0.036260652  0.020647877  0.016710651  0.028454265 
   70000  0.010133281   -3.1172667  0.010098096   -3.1071686  0.016327152 -0.024152062 -0.022445608 -0.0039124549 
   80000 0.0086113834   -3.1175792 0.0085814827   -3.1089977   0.02762422 -0.0014176427  0.010323765  0.013103288 
   90000  0.010354416   -3.1171793  0.010318463   -3.1068608  0.031693487  0.011184132  -0.00603982  0.021438809 
  100000 0.0096236873   -3.1182151 0.0095902717   -3.1086249  0.027130034  0.013543762 -0.0094927714  0.020336898 
  110000 0.0095946171    -3.116805 0.0095613025   -3.1072437  0.037798174  0.030587186 -0.048060401   0.03419268 
  120000 0.0095827372   -3.1175025 0.0095494638   -3.1079531   0.03597226  0.027710997 -0.011154145  0.031841629 
  130000  0.010339262   -3.1188464  0.010303362    -3.108543  0.026502683 0.0045780937 0.0088402452  0.015540388 
  140000 0.0096410864   -3.1161219 0.0096076104   -3.1065143  0.011785742  -0.05665274 0.0089111429 -0.022433499 
  150000 0.0092772873   -3.1178166 0.0092450745   -3.1085716  0.013440327 -0.046850433 -0.0070692337 -0.016705053 
  160000 0.0087678818   -3.1165267 0.0087374378   -3.1077892   0.01768786 -0.029024841 -0.0060937292 -0.0056684908 
  170000 0.0084933613   -3.1172987 0.0084638704   -3.1088349  0.044123538  0.051718924 -0.0042035046  0.047921231 
  180000 0.0099918655   -3.1171141 0.0099571716   -3.1071569  0.033785846  0.012351752 -0.0050467316  0.023068799 
  190000 0.0092578044   -3.1167476 0.0092256593   -3.1075219  0.028041278 -0.010111421 0.00083339431 0.0089649283 
  200000 0.0092872635   -3.1176983 0.0092550161   -3.1084433  0.022957129 -0.017620156 -0.0069992554 0.0026684862 
  210000 0.0091645899   -3.1163918 0.0091327684    -3.107259  0.034594558 0.0096276669  0.016224276  0.022111112 
  220000 0.0089061022   -3.1173772 0.0088751783    -3.108502  0.017705203 -0.030072426  0.020338758 -0.0061836115 
  230000  0.010159323   -3.1156628  0.010124048   -3.1055388  0.040740205  0.020300942 0.0075129602  0.030520573 
  240000 0.0098115377   -3.1170259 0.0097774699   -3.1072484  0.035802505  0.010171121  -0.02190388  0.022986813 
  250000  0.009604486   -3.1166012 0.0095711371   -3.1070301  0.032461944 0.0023988921 -0.0087801158  0.017430418 
  260000 0.0091916144   -3.1182449 0.0091596991   -3.1090852  0.018240761 -0.015500403 -0.0094803246  0.001370179 
  270000 0.0093713782   -3.1180067 0.0093388387   -3.1086679  0.023434507 -0.0004867901 -0.045063423  0.011473858 
  280000 0.0086009448    -3.116935 0.0085710805   -3.1083639  0.012459085 -0.040777065  -0.03132424  -0.01415899 
  290000 0.0095036747   -3.1171488 0.0094706758   -3.1076782  0.028098566 0.00096889526 -0.019060353  0.014533731 
  300000  0.010460167   -3.1168566  0.010423847   -3.1064328  0.011931058 -0.039277715 -0.014666994 -0.013673329 
  310000 0.0092830226   -3.1164679 0.0092507899   -3.1072171  0.015622412 -0.038756958 -0.014720905 -0.011567273 
  320000 0.0098386023   -3.1179862 0.0098044405   -3.1081818  0.027523143 -0.0077540627  -0.02933899 0.0098845401 
  330000 0.0094165939   -3.1168463 0.0093838974   -3.1074624  0.034365456  0.010358231  -0.01598268  0.022361843 
  340000 0.0098285701   -3.1175001 0.0097944431   -3.1077056  0.031611349 0.0084466891 -0.0029303745  0.020029019 
  350000  0.010332862   -3.1173348  0.010296984   -3.1070379  0.033242544  0.015434893 0.0061759561  0.024338719 
  360000 0.0089549008   -3.1174873 0.0089238074   -3.1085635   0.02060002  -0.01214348 -0.0060157055   0.00422827 
  370000 0.0082992956   -3.1173024 0.0082704786   -3.1090319   0.05556646  0.082058247  0.015278195  0.068812354 
  380000  0.010449832    -3.116248  0.010413548   -3.1058345  0.039722287  0.024823627 -0.004308063  0.032272957 
  390000  0.010156535   -3.1169427  0.010121269   -3.1068215  0.035317138  0.021256664 -0.022261199  0.028286901 
  400000  0.009863496   -3.1175507 0.0098292477   -3.1077214  0.029829218 0.0025056346 0.00033182266  0.016167426 
  410000 0.0083618729   -3.1175766 0.0083328386   -3.1092438   0.02019015 -0.0083278532 0.0092285816 0.0059311483 
  420000 0.0088225451   -3.1169981 0.0087919113   -3.1082062  0.033778744  0.014685723 -0.0085065315  0.024232233 
  430000 0.0099824422   -3.1172588 0.0099477809    -3.107311   0.03132105 0.0084503928 0.0039019883  0.019885721 
  440000   0.01010911   -3.1176823  0.010074009   -3.1076083  0.025180758 -0.00061818375 -0.0037575267  0.012281287 
  450000 0.0093566226   -3.1182104 0.0093241344   -3.1088862  0.025930205 -0.0047958331 0.0017001984  0.010567186 
  460000 0.0098611394   -3.1170816 0.0098268994   -3.1072547  0.026324709 -0.010413349 -0.023227879   0.00795568 
  470000  0.011370425   -3.1171238  0.011330945   -3.1057928  0.032841886  0.011320231 -0.0058823032  0.022081059 
  480000 0.0099093181   -3.1175779 0.0098749108    -3.107703 0.0060928615 -0.056083719 -0.018237939 -0.024995429 
  490000  0.012151616   -3.1180523  0.012109423   -3.1059429  0.026275367 0.0032159722  0.013265707   0.01474567 
  500000 0.0098736515   -3.1176982 0.0098393679   -3.1078588   0.02068121 -0.021872204 0.0065809041 -0.00059549687 
  510000 0.0095782964   -3.1174877 0.0095450384   -3.1079427  0.031563239  0.002721005 -0.004369711  0.017142122 
  520000  0.010326455   -3.1167939    0.0102906   -3.1065033 0.00081105749 -0.082296205 -0.043056198 -0.040742574 
  530000 0.0093550061   -3.1179407 0.0093225235   -3.1086182  0.025604871 -0.007009467 -0.025234274 0.0092977022 
  540000 0.0084450836   -3.1168576 0.0084157604   -3.1084418  0.033702016  0.019112591 -0.020987069  0.026407304 
  550000 0.0097493453   -3.1174474 0.0097154934   -3.1077319  0.018353394  -0.03606113 -0.0030077561 -0.0088538682 
  560000  0.010338337   -3.1164149   0.01030244   -3.1061125  0.033798824 0.0057888293  0.011437917  0.019793827 
  570000 0.0098009886   -3.1178961 0.0097669574   -3.1081292  0.023446332 -0.011968442 0.0040510645 0.0057389448 
  580000 0.0093142664   -3.1176924 0.0092819252   -3.1084105  0.025995151 -0.017086368 -0.022977844 0.0044543911 
  590000 0.0099122915    -3.117933 0.0098778738   -3.1080551 0.0045073232 -0.070800177 -0.001289617 -0.033146427 
  600000 0.0094825515   -3.1179891 0.0094496259   -3.1085394  0.025591544 0.0054682156 -0.011375614   0.01552988 
  610000  0.010171396   -3.1168523  0.010136079   -3.1067162  0.022738047 -0.028332865 -0.017399387 -0.0027974092 
  620000  0.009612979   -3.1172656 0.0095796006    -3.107686  0.030938896 0.0053596356 -0.0038300593  0.018149266 
  630000 0.0090746674   -3.1168865 0.0090431582   -3.1078434  0.032509988  0.010871839 -0.016484745  0.021690913 
  640000 0.0099351888   -3.1170413 0.0099006916   -3.1071407  0.030093687 0.00090401921  0.018908455  0.015498853 
  650000  0.010123245   -3.1167249  0.010088095   -3.1066368  0.019029803 -0.024719223  0.020464647 -0.0028447102 
  660000 0.0087281758   -3.1179784 0.0086978696   -3.1092806  0.043856663  0.052990465 -0.0011931145  0.048423564 
  670000 0.0094837438   -3.1173343 0.0094508141   -3.1078834  0.039836369  0.038541382  0.043350242  0.039188875 
  680000 0.0088984103   -3.1171299  0.008867513   -3.1082624  0.037872838  0.021564945  0.020082301  0.029718891 
  690000 0.0092707915    -3.116678 0.0092386012   -3.1074394   0.03342149  0.010436913 -0.026160592  0.021929202 
  700000  0.010370144   -3.1173787  0.010334136   -3.1070446  0.013403106 -0.045549599 -0.019920378 -0.016073247 
  710000 0.0093461694    -3.116966 0.0093137175   -3.1076523  0.018458913 -0.027344487 -0.0016062621 -0.0044427867 
  720000 0.0099493671   -3.1164388 0.0099148207    -3.106524  0.016625646 -0.059468155 -0.034654943 -0.021421255 
  730000 0.0094003991    -3.116357 0.0093677588   -3.1069892  0.049776655  0.061396749 -0.044981285  0.055586702 
  740000 0.0087938752   -3.1173271 0.0087633409   -3.1085638  0.024041438 -0.0091664591  0.019676851 0.0074374895 
  750000  0.009334445   -3.1175468 0.0093020337   -3.1082447  0.024697338 -0.0085992534 -0.021615616 0.0080490424 
  760000  0.010789674   -3.1176052   0.01075221    -3.106853  0.043078581  0.051968005 -0.009294657  0.047523293 
  770000  0.010551837   -3.1164996  0.010515198   -3.1059844  0.034633209  0.011537893 -0.0090392809  0.023085551 
  780000  0.010311941   -3.1177388  0.010276135   -3.1074627  0.030955123  0.014069701 0.0014822017  0.022512412 
  790000 0.0092802083   -3.1177692 0.0092479854   -3.1085212  0.016377424 -0.045399739  0.017542505 -0.014511157 
  800000 0.0089680044   -3.1173349 0.0089368655    -3.108398  0.016866881 -0.039012513  0.024532194 -0.011072816 
  810000 0.0097680933    -3.117507 0.0097341763   -3.1077728  0.023765814 -0.0061128235  0.028141704 0.0088264952 
  820000 0.0077463535   -3.1176206 0.0077194565   -3.1099011  0.030968211 0.0080535513  0.033898258  0.019510881 
  830000 0.0099599484    -3.116548 0.0099253652   -3.1066226  0.023053831 -0.018527209 0.0010131849 0.0022633112 
  840000 0.0086972687   -3.1174548 0.0086670699   -3.1087877  0.015252934 -0.039073579 -0.016469977 -0.011910322 
  850000  0.009189927   -3.1177947 0.0091580175   -3.1086367  0.020209779  -0.02288687  -0.01377074 -0.0013385456 
  860000 0.0098760465   -3.1171017 0.0098417546   -3.1072599  0.039253168  0.019362409  -0.00432642  0.029307788 
  870000  0.010802894   -3.1172727  0.010765384   -3.1065073   0.03699212  0.026369833  0.021637413  0.031680976 
  880000 0.0095681954   -3.1170744 0.0095349725   -3.1075394   0.03109064 0.0054687078  0.023454277  0.018279674 
  890000 0.0090839721   -3.1172185 0.0090524306   -3.1081661  0.035787762  0.011966899  0.029644954  0.023877331 
  900000 0.0094921041   -3.1183637 0.0094591454   -3.1089046  0.039848169  0.047748413 -0.0011172963  0.043798291 
  910000 0.0099633842    -3.117727 0.0099287892   -3.1077983  0.017184723 -0.014050077 0.0053966877 0.0015673232 
  920000 0.0091504854   -3.1178358 0.0091187129    -3.108717  0.029131637 0.0067455015  0.019030139  0.017938569 
  930000  0.009073796   -3.1168701 0.0090422898   -3.1078278  0.033922908  0.017849841 0.0096308479  0.025886374 
  940000 0.0091851357   -3.1170358 0.0091532429   -3.1078825  0.031082067 -0.0073797833  0.013089145  0.011851142 
  950000 0.0096912741    -3.116652 0.0096576238   -3.1069944  0.014592436  -0.05772605 0.0064515964 -0.021566807 
  960000  0.010100673   -3.1175877  0.010065601   -3.1075221  0.037445522   0.03736729  0.011760732  0.037406406 
  970000 0.0091783855   -3.1179682 0.0091465161   -3.1088216  0.013831216 -0.041543294  0.021493865 -0.013856039 
  980000 0.0098823356   -3.1179425 0.0098480219   -3.1080944  0.021324474 -0.015025954  0.020404284 0.0031492599 
  990000 0.0084835937   -3.1173519 0.0084541368   -3.1088978  0.028136743  -0.01039644 -0.021394369 0.0088701516 
 1000000 0.0095748342   -3.1177381 0.0095415882   -3.1081965  0.029149586 0.0091313912 -0.016724685  0.019140489 
 1010000 0.0090596832   -3.1179325  0.009028226   -3.1089043  0.036998291  0.021659528 0.0073242604  0.029328909 
 1020000 0.0096475075   -3.1177197 0.0096140092   -3.1081057     0.014483 -0.032815309   0.01493557 -0.0091661543 
 1030000 0.0085242682   -3.1172005   0.00849467   -3.1087058    0.0428611  0.050114135 -0.022960547  0.046487618 
 1040000 0.0095231289   -3.1161323 0.0094900625   -3.1066422  0.013893136 -0.050640524 -0.010135572 -0.018373694 
 1050000 0.0092197787   -3.1174549 0.0091877656   -3.1082672  0.018804824 -0.010836015  0.040547927 0.0039844043 
 1060000  0.010805779   -3.1174783  0.010768259     -3.10671  0.033980864  0.022759811  0.017327992  0.028370337 
 1070000  0.010538072   -3.1171483  0.010501482   -3.1066469  0.019614811 -0.012148959 -0.012249168 0.0037329257 
 1080000 0.0093445742   -3.1167804 0.0093121278   -3.1074683  0.025861763 -0.0072188349   0.01963714 0.0093214641 
 1090000 0.0091255646   -3.1170967 0.0090938786   -3.1080028  0.021101103 -0.013344991 -0.028184624  0.003878056 
 1100000 0.0089199029   -3.1168047  0.008888931   -3.1079158  0.028868161   0.01904613 -0.0066866665  0.023957146 
 1110000  0.010206349   -3.1175288  0.010170911   -3.1073579   0.02712477 0.0024055166 0.0002546587  0.014765143 
 1120000  0.007555843   -3.1166797 0.0075296074     -3.10915  0.025187556 -0.0063646818 -0.021944254 0.0094114369 
 1130000 0.0094472167   -3.1183533 0.0094144138   -3.1089389  0.015574985 -0.027037282 -0.0034235334 -0.0057311489 
 1140000 0.0085825522    -3.117455 0.0085527516   -3.1089023  0.018968804 -0.029926054 -0.014422422 -0.0054786251 
 1150000 0.0098880708   -3.1167497 0.0098537372    -3.106896   0.02086323 -0.023732596 0.0095066271 -0.0014346829 
 1160000 0.0092126413   -3.1172171  0.009180653   -3.1080364  0.029154678 0.0013923733   0.01328458  0.015273526 
 1170000 0.0092442348   -3.1177036 0.0092121368   -3.1084914  0.025932739 0.0040297893 -0.00035028293  0.014981264 
 1180000  0.009974867   -3.1174514  0.009940232   -3.1075111  0.019724143 -0.034030756 -0.020882365 -0.0071533065 
 1190000 0.0087374227   -3.1173709 0.0087070844   -3.1086638 0.00076632735 -0.076934411 -0.0028821262 -0.038084042 
 1200000  0.009397217   -3.1173008 0.0093645878   -3.1079362  0.019054571 -0.015224755 -0.026763085 0.0019149082 
 1210000  0.008637468   -3.1173824 0.0086074768    -3.108775  0.038686847  0.026500938 -0.011585469  0.032593893 
 1220000 0.0093529182   -3.1163625 0.0093204428    -3.107042  0.039009095  0.014862705 -0.010536287    0.0269359 
 1230000 0.0088807676   -3.1165992 0.0088499316   -3.1077493  0.036408893  0.029829284 -0.010211753  0.033119088 
 1240000  0.010308489    -3.117273  0.010272695   -3.1070003  0.031169687 0.0053850219 0.0026497833  0.018277354 
 1250000 0.0099032178   -3.1178295 0.0098688316   -3.1079606  0.013850894 -0.030237873  0.003616586 -0.0081934895 
 1260000 0.0099811404   -3.1188538 0.0099464837   -3.1089073  0.010878247 -0.042469486 -0.021842045 -0.015795619 
 1270000  0.010661301   -3.1166949  0.010624283   -3.1060706  0.028361578 -0.0059114828  0.010371476  0.011225048 
 1280000 0.0090796209   -3.1163572 0.0090480944   -3.1073091  0.043178682  0.036700238  0.035702947   0.03993946 
 1290000 0.0091804668   -3.1170342 0.0091485902   -3.1078856   0.02070967 -0.025462325  0.015536564 -0.0023763273 
 1300000 0.0096969871   -3.1163287  0.009663317   -3.1066654  0.044333494  0.033106464  0.028224684  0.038719979 
 1310000 0.0085502991    -3.117251 0.0085206106   -3.1087304   0.02148493 -0.033982737  0.012160852 -0.0062489033 
 1320000  0.009988994   -3.1171459   0.00995431   -3.1071916   0.02342506 -0.0095186502  0.017158843 0.0069532051 
 1330000 0.0094782446   -3.1168513  0.009445334    -3.107406 0.0067464873 -0.063064902 0.0038573785 -0.028159207 
 1340000 0.0087366517   -3.1163241 0.0087063161   -3.1076178   0.02774641 -0.012534566  0.020283438 0.0076059216 
 1350000 0.0094900818   -3.1173161 0.0094571301    -3.107859  0.040039073   0.02952348 -0.014759707  0.034781276 
 1360000 0.0087460978   -3.1170174 0.0087157294   -3.1083017  0.033932796  0.015989944 0.0081918639   0.02496137 
 1370000 0.0091800424   -3.1162324 0.0091481673   -3.1070842  0.030748046 -0.0064675492 -0.0036492396  0.012140248 
 1380000 0.0096037232   -3.1174272 0.0095703769   -3.1078568  0.026438791 -0.0077123975 -0.0095375646 0.0093631969 
 1390000 0.0089327233   -3.1168906 0.0089017069   -3.1079889  0.024796271 -0.011406663 0.0028607903 0.0066948036 
 1400000 0.0096309437   -3.1173958 0.0095975029   -3.1077983 0.0072128923 -0.060466359   0.01197325 -0.026626733 
 1410000 0.0094866355    -3.116638 0.0094536958   -3.1071843  0.048282058  0.056557775  -0.00745803  0.052419917 
 1420000  0.010363268   -3.1172352  0.010327285   -3.1069079  0.028766436 -0.0011074042  0.010732601  0.013829516 
 1430000 0.0092798678   -3.1170759  0.009247646   -3.1078282  0.037942825  0.023743942 -0.013659472  0.030843384 
 1440000  0.010337793   -3.1170722  0.010301898   -3.1067703  0.021204467 -0.014756212 -0.0089691419 0.0032241276 
 1450000 0.0087374193   -3.1173383 0.0087070811   -3.1086312  0.041349775  0.055523526 -0.0071022204  0.048436651 
 1460000 0.0086272171   -3.1169598 0.0085972614   -3.1083626   0.03116778  0.012415245  0.018791707  0.021791513 
 1470000 0.0084671643   -3.1178318 0.0084377644    -3.109394  0.028753632 0.0042708191  0.024601454  0.016512225 
 1480000 0.0089692777   -3.1175289 0.0089381344   -3.1085908  0.030520901 8.1229775e-05  0.015259084  0.015301065 
 1490000 0.0094241008   -3.1175092 0.0093913782   -3.1081178  0.038091074  0.046642211  0.034386153  0.042366642 
 1500000  0.009652539   -3.1179221 0.0096190233   -3.1083031  0.010111015 -0.045249438  0.013358375 -0.017569211 
 1510000  0.009806851   -3.1184538 0.0097727995    -3.108681  0.024907111 0.0059434032  0.021464694  0.015425257 
 1520000 0.0095310231   -3.1168148 0.0094979292   -3.1073169  0.036151459  0.028385069 0.0062063751  0.032268264 
 1530000 0.0097993477    -3.117202 0.0097653221   -3.1074367  0.041843031  0.034001354  -0.02782868  0.037922192 
 1540000 0.0099601401   -3.1168095 0.0099255563   -3.1068839  0.016973384 -0.030651614 -0.011201551 -0.0068391147 
 1550000  0.010234434   -3.1175497  0.010198898   -3.1073508  0.030099741 0.0016496378 -0.0017711896  0.015874689 
 1560000 0.0098561179   -3.1163575 0.0098218952   -3.1065356  0.046212096  0.042373421 0.0080611695  0.044292759 
 1570000 0.0080300008   -3.1176073 0.0080021189   -3.1096051  0.031714393  0.021933259 -0.0025641418  0.026823826 
 1580000  0.010734987   -3.1170274  0.010697713   -3.1063297  0.041845052  0.035246235  0.022005825  0.038545643 
 1590000  0.008701526   -3.1170784 0.0086713124   -3.1084071  0.029927969 0.0039247967   0.01696563  0.016926383 
 1600000 0.0082792536   -3.1160287 0.0082505062   -3.1077782  0.016127442 -0.060325263  0.021591391  -0.02209891 
 1610000 0.0087527648   -3.1179482 0.0087223732   -3.1092258  0.029696549  0.009010055 -0.0075767749  0.019353302 
 1620000 0.0099168603   -3.1179288 0.0098824268   -3.1080464  0.039067937  0.034518706   0.01488865  0.036793322 
 1630000 0.0093061056   -3.1176395 0.0092737927   -3.1083658  0.031394222  0.012434567 -0.015198492  0.021914395 
 1640000 0.0092471712   -3.1173001  0.009215063    -3.108085  0.015952887 -0.038828268 -0.0077837769  -0.01143769 
 1650000  0.010091874   -3.1161528  0.010056832    -3.106096   0.02188332 -0.027085468 0.0049285113 -0.0026010739 
 1660000 0.0093169885   -3.1170352 0.0092846378   -3.1077506  0.025021483 -0.0063978021 -0.0039959414 0.0093118404 
 1670000   0.01123581   -3.1167901  0.011196796   -3.1055933  0.015158032 -0.049643009 -0.012706918 -0.017242488 
 1680000  0.010182258   -3.1169197  0.010146903   -3.1067728  0.051452595  0.059853909 -0.009920465  0.055653252 
 1690000 0.0089910281   -3.1175025 0.0089598093   -3.1085427   0.02878701 0.0078082314 -0.010263359  0.018297621 
 1700000 0.0096020928   -3.1172478 0.0095687522    -3.107679  0.015342486  -0.04718853 -0.039307947 -0.015923022 
 1710000  0.010694732    -3.117653  0.010657598   -3.1069954  0.025822256 -0.0020224713 -0.031148792  0.011899892 
 1720000  0.010135255   -3.1165797  0.010100064   -3.1064796  0.017193929 -0.050050635 -0.0080516954 -0.016428353 
 1730000  0.008801315   -3.1178496 0.0087707549   -3.1090788  0.031110717  0.018850852 -0.0054602033  0.024980784 
 1740000 0.0097171589   -3.1179616 0.0096834188   -3.1082782  0.017705704 -0.014235492   0.01198763 0.0017351061 
 1750000 0.0092529893   -3.1165588 0.0092208609   -3.1073379   0.04312527  0.042353216  0.039881318  0.042739243 
 1760000  0.009341166   -3.1161027 0.0093087314   -3.1067939  0.056083473  0.077350096  0.014694271  0.066716784 
 1770000 0.0087648581     -3.11657 0.0087344245   -3.1078356  0.033349118  0.022605642  0.012490488   0.02797738 
 1780000 0.0090678533   -3.1180246 0.0090363677   -3.1089882  0.015137023 -0.017351799 0.0013374679 -0.001107388 
 1790000 0.0097684121   -3.1164415  0.009734494    -3.106707  0.022844727 -0.022493579 -0.012682655 0.00017557416 
 1800000  0.010345945   -3.1171564  0.010310022   -3.1068463  0.038324616  0.036790171 -0.013876499  0.037557394 
 1810000 0.0090121384   -3.1174383 0.0089808463   -3.1084575  0.039477377  0.035903096  0.026455627  0.037690237 
 1820000 0.0099218647   -3.1166679 0.0098874138   -3.1067805  0.026954745 -0.0041724105  0.049059953  0.011391167 
 1830000 0.0095167065   -3.1161068 0.0094836623   -3.1066231  0.027181866 -0.0077704021 -0.011734248 0.0097057319 
 1840000  0.010140814   -3.1172145  0.010105602   -3.1071089  0.017527582 -0.032227647  0.012433968 -0.0073500327 
 1850000 0.0096495366   -3.1177205 0.0096160313   -3.1081045  0.022870881 -0.004014948  0.038496244 0.0094279666 
 1860000 0.0085539263   -3.1170905 0.0085242251   -3.1085662  0.025480207 -0.019504695 0.00047620772 0.0029877559 
 1870000 0.0091805782   -3.1176396 0.0091487012   -3.1084909  0.057127167  0.085168156 0.0043029148  0.071147662 
 1880000 0.0081660657   -3.1170926 0.0081377113   -3.1089549  0.033526471  0.011330243  0.038857072  0.022428357 
 1890000 0.0094067017   -3.1164471 0.0093740396   -3.1070731  0.032571353 0.0040775744   0.02801891  0.018324464 
 1900000 0.0096737126   -3.1181694 0.0096401233   -3.1085293  0.024437291 -0.014294149 -0.0020924472 0.0050715712 
 1910000 0.0087598616   -3.1164189 0.0087294454   -3.1076894  0.043141706  0.030603419 0.0040576176  0.036872562 
 1920000 0.0091498585   -3.1161274 0.0091180881   -3.1070093  0.047688787  0.049048247 -0.025685134  0.048368517 
 1930000  0.010729565    -3.116001  0.010692309   -3.1053087  0.030261553 -0.0042969746  -0.01542338  0.012982289 
 1940000  0.009410149   -3.1173329 0.0093774749   -3.1079554   0.01327135 -0.033408126 -0.029490801 -0.010068388 
 1950000   0.00979065   -3.1174421 0.0097566546   -3.1076855  0.016839915 -0.031807715 -0.020828312 -0.0074839002 
 1960000 0.0095270693   -3.1177237 0.0094939892   -3.1082298  0.022417199 -0.0064677532 -0.00058541617  0.007974723 
 1970000  0.009882203   -3.1164592 0.0098478898   -3.1066113  0.037991462  0.012413743  0.012646836  0.025202602 
 1980000 0.0082077229   -3.1165359 0.0081792238   -3.1083567  0.024328798 -0.014984134 0.0030908774 0.0046723318 
 1990000 0.0094968669   -3.1182724 0.0094638916   -3.1088085  0.019770415 -0.016515882   0.02426486 0.0016272662 
 2000000 0.0099502512   -3.1183903 0.0099157017   -3.1084746  0.026341591 0.0030652427  0.029954621  0.014703417 
 2010000 0.0099536315   -3.1170576 0.0099190703   -3.1071385  0.017554444 -0.028652887  0.028539824 -0.0055492213 
 2020000 0.0085618196   -3.1177058 0.0085320911   -3.1091737  0.026038256 0.0015329378 0.0043040957  0.013785597 
 2030000 0.0095496683   -3.1171367 0.0095165097   -3.1076202  0.029717806 -0.0010508498 -0.00053179171  0.014333478 
 2040000  0.009075956   -3.1159515 0.0090444423   -3.1069071  0.026382375 -0.0091452075   0.02455235 0.0086185837 
 2050000  0.010164079   -3.1162228  0.010128787   -3.1060941  0.026227294 -0.012717427  0.040190308 0.0067549335 
 2060000   0.00925714   -3.1163261 0.0092249971   -3.1071011  0.031905578 -0.0085929815  0.015337307  0.011656298 
 2070000 0.0089235412   -3.1174013 0.0088925566   -3.1085087  0.020701477 -0.026208345  0.028891138 -0.0027534341 
 2080000 0.0099475988   -3.1180841 0.0099130586   -3.1081711   0.02537848 -0.001233766  0.011552097  0.012072357 
 2090000 0.0094414334   -3.1184146 0.0094086506    -3.109006  0.037256404   0.02482846  0.020849711  0.031042432 
 2100000 0.0094002194   -3.1183387 0.0093675798   -3.1089711  0.024677544 0.00058050955 -0.0016442388  0.012629027 
 2110000 0.0087310581   -3.1173633 0.0087007419   -3.1086625  0.025832247 -0.0016565001  0.013420815  0.012087873 
 2120000  0.010553648   -3.1163947  0.010517003   -3.1058777  0.030121535 -0.00027689017 -0.0093536299  0.014922322 
 2130000 0.0097999306   -3.1170292 0.0097659031   -3.1072633  0.027298739  0.010006318 -0.039595821  0.018652529 
 2140000 0.0095978668   -3.1175045 0.0095645409   -3.1079399  0.032134641 0.0032213519 -0.017262151  0.017677997 
 2150000 0.0094965579   -3.1176787 0.0094635838   -3.1082151  0.016717446 -0.034166699 -0.025403309 -0.0087246267 
 2160000 0.0094265191   -3.1176784 0.0093937882   -3.1082846  0.023773857 -0.0039034641  0.027474658 0.0099351963 
 2170000 0.0098259242   -3.1181666 0.0097918064   -3.1083748  0.013186563  -0.04611245 -0.0061129172 -0.016462944 
 2180000 0.0099741503   -3.1167002 0.0099395179   -3.1067606  0.028934029 0.0083189113 -0.034813581   0.01862647 
 2190000 0.0097893213   -3.1167364 0.0097553306   -3.1069811  0.049303267  0.060144724 -0.0089190585  0.054723995 
 2200000  0.008636047   -3.1177271 0.0086060607    -3.109121  0.035422647  0.025100866 -0.0016108937  0.030261757 
 2210000 0.0083506178    -3.116308 0.0083216226   -3.1079863  0.020780064 -0.026468375 -0.0033852137 -0.0028441558 
 2220000 0.0092393755    -3.117767 0.0092072944   -3.1085597   0.02171304 -0.020788249 -0.0071018268 0.00046239543 
 2230000 0.0088285677   -3.1174214 0.0087979129   -3.1086235  0.028176307 0.0043818555 -0.019389571  0.016279081 
 2240000 0.0092864727   -3.1176235  0.009254228   -3.1083693  0.041278257    0.0346231 -0.017549488  0.037950678 
 2250000 0.0098450502   -3.1173249  0.009810866    -3.107514  0.029502389  0.004286371 -0.037551709   0.01689438 
 2260000 0.0090624474   -3.1167261 0.0090309806   -3.1076951  0.013980015 -0.044746185 0.0018097411 -0.015383085 
 2270000 0.0094243715   -3.1165574  0.009391648   -3.1071658  0.041341112  0.043131575  0.013788372  0.042236344 
 2280000  0.010282844   -3.1170641  0.010247139    -3.106817 0.0097307857 -0.057666634  0.019324781 -0.023967924 
 2290000 0.0094300781   -3.1173004 0.0093973347    -3.107903   0.02997943  0.010476501  0.018862711  0.020227966 
 2300000  0.010019208   -3.1168488 0.0099844191   -3.1068644  0.036650263  0.032338582 -0.017149056  0.034494423 
 2310000  0.008823718   -3.1170073 0.0087930801   -3.1082142  0.022929028 -0.029577632 -0.012716657 -0.0033243019 
 2320000 0.0090378425   -3.1175416 0.0090064611   -3.1085351  0.024874781 -0.013352146 -0.012685388 0.0057613174 
 2330000  0.010345254   -3.1180436  0.010309333   -3.1077342   0.03349791   0.02854184  0.029254616  0.031019875 
 2340000 0.0083629694   -3.1172702 0.0083339313   -3.1089363 0.0093573769 -0.058042493  0.015082604 -0.024342558 
 2350000  0.009254607   -3.1171299 0.0092224729   -3.1079074  0.024068066 -0.013132033 -0.0013425798 0.0054680164 
 2360000 0.0084146181   -3.1168932 0.0083854007   -3.1085078  0.016602916 -0.048193106 0.0021374036 -0.015795095 
 2370000 0.0097077912   -3.1166485 0.0096740836   -3.1069744  0.050229418  0.064152557   0.01633014  0.057190987 
 2380000 0.0094584613   -3.1168115 0.0094256195   -3.1073858  0.031207281 0.0077907008 0.0040478955  0.019498991 
 2390000 0.0099971013    -3.116624 0.0099623892   -3.1066616    0.0347529  0.011214314 -0.024790176  0.022983607 
 2400000 0.0086998413   -3.1174242 0.0086696335   -3.1087546   0.02725334 0.0001328533  0.026068567  0.013693096 
 2410000 0.0096050902   -3.1180092 0.0095717392   -3.1084374  0.030384056 0.0026795472 -0.0055673171  0.016531802 
 2420000 0.0095116131   -3.1175133 0.0094785867   -3.1080347  0.017740294 -0.025175943  0.011697497 -0.0037178244 
 2430000 0.0092173815   -3.1167842 0.0091853767   -3.1075989  0.016674212  -0.04450376 -0.0013083974 -0.013914774 
 2440000 0.0089573843   -3.1173506 0.0089262822   -3.1084243  0.030816995  0.019941581 0.0063224806  0.025379288 
 2450000 0.0090335198   -3.1177961 0.0090021535    -3.108794  0.029622359 0.0067805547 -0.0012035708  0.018201457 
 2460000  0.010244319   -3.1168586  0.010208748   -3.1066498   0.02577343 -0.010522848  0.027229235 0.0076252911 
 2470000 0.0085188027   -3.1174169 0.0084892236   -3.1089277  0.032884954    0.0166086  0.011224307  0.024746777 
 2480000   0.01016617   -3.1173824  0.010130871   -3.1072516  0.039006578  0.024364809  0.022877217  0.031685694 
 2490000   0.00919294   -3.1162618 0.0091610201   -3.1071008  0.026537581 0.0022756197 -0.002853709    0.0144066 
 2500000   0.00902539    -3.116916 0.0089940518   -3.1079219  0.054376784  0.073757751 -0.028024617  0.064067268 
 2510000 0.0081940272     -3.11825 0.0081655757   -3.1100844  0.032784164  0.028967508 -0.010560866  0.030875836 
 2520000 0.0092362721   -3.1174696 0.0092042017   -3.1082654  0.030904013  0.018239318 0.0043900387  0.024571665 
 2530000 0.0090918293   -3.1174437 0.0090602605   -3.1083835  0.027882175 -0.0088701999 -0.0016064703 0.0095059878 
 2540000  0.010117845   -3.1182052  0.010082713   -3.1081225  0.030629603 0.0075241046 0.0063289171  0.019076854 
 2550000 0.0095824955   -3.1176194 0.0095492229   -3.1080702  0.024443986 -0.0085857761 -0.012317032 0.0079291048 
 2560000 0.0099504447   -3.1162863 0.0099158946   -3.1063704  0.025526938 -0.028255415  0.012379461 -0.0013642387 
 2570000 0.0095525707   -3.1175673  0.009519402   -3.1080479  0.015675941  -0.03996489  0.029266756 -0.012144475 
 2580000 0.0094626662   -3.1185785 0.0094298097   -3.1091487  0.015058219 -0.037042546  0.012605374 -0.010992164 
 2590000  0.008525715   -3.1174449 0.0084961118   -3.1089488  0.015506805  -0.03710355  -0.01251472 -0.010798373 
 2600000 0.0092446137   -3.1177384 0.0092125144   -3.1085259  0.027805444 0.0086167145 -0.011616229  0.018211079 
 2610000 0.0099689037   -3.1173738 0.0099342894   -3.1074395  0.038441283  0.030799043 -0.00054308368  0.034620163 
 2620000 0.0091750431   -3.1173809 0.0091431853   -3.1082377  0.037284239  0.047606495 -0.022977191  0.042445367 
 2630000  0.010552065   -3.1173119  0.010515425   -3.1067965  0.034125003  0.012934506 -0.0011356341  0.023529754 
 2640000  0.010091766   -3.1168225  0.010056725   -3.1067658  0.026759831 -0.014082351  0.001137174 0.0063387403 
 2650000 0.0097804859   -3.1164267 0.0097465259   -3.1066802  0.034840349  0.014352448 0.0094701225  0.024596398 
 2660000  0.010748527   -3.1167026  0.010711206   -3.1059914  0.043958812   0.04724886 0.0024551776  0.045603836 
 2670000 0.0093420472   -3.1169327 0.0093096095    -3.107623  0.031740136  0.013053144  0.035817871   0.02239664 
 2680000  0.008798125   -3.1174738  0.008767576   -3.1087062   0.02944569  0.014235313 0.0041138272  0.021840502 
 2690000 0.0087306353   -3.1165051 0.0087003206   -3.1078048  0.028471507 -0.015467884 -0.0042954968 0.0065018112 
 2700000 0.0098130994   -3.1168543 0.0097790261   -3.1070752  0.002723369 -0.077929554 -0.0059581807 -0.037603092 
 2710000  0.010086875   -3.1182703  0.010051851   -3.1082185  0.021230844 -0.010364968 0.00039573279  0.005432938 
 2720000 0.0097962441   -3.1181217 0.0097622293   -3.1083594  0.027210071  0.011141377 -0.021387452  0.019175724 
 2730000   0.00963752   -3.1182239 0.0096040564   -3.1086199  0.048590204  0.067133752  0.034794441  0.057861978 
 2740000  0.010518511    -3.116307  0.010481988    -3.105825  0.007648385 -0.054500218  0.035996066 -0.023425917 
 2750000  0.009347724   -3.1176106 0.0093152666   -3.1082953 0.0087798835  -0.04832764  0.022965141 -0.019773878 
 2760000 0.0095565408   -3.1182626 0.0095233583   -3.1087392  0.020768016 -0.0051036108 0.0056630466 0.0078322027 
 2770000 0.0099786145   -3.1169367 0.0099439665   -3.1069927  0.043796764  0.042103528 -0.022102019  0.042950146 
 2780000 0.0088377882   -3.1174932 0.0088071014   -3.1086861   0.03496581  0.020547355 0.0081281755  0.027756583 
 2790000 0.0093458938   -3.1172633 0.0093134428   -3.1079499  0.034633548  0.016203625 -0.008098099  0.025418586 
 2800000 0.0099310776   -3.1184867 0.0098965947   -3.1085901  0.015750733 -0.028909185 -0.0035048555 -0.0065792258 
 2810000 0.0085030457   -3.1171375 0.0084735212    -3.108664  0.035476826   0.03362577 -0.0068477252  0.034551298 
 2820000  0.009620493   -3.1156123 0.0095870886   -3.1060252  0.036337114 0.0045563897  0.010051923  0.020446752 
 2830000 0.0093000574   -3.1170932 0.0092677655   -3.1078255 0.0046016483 -0.074129146 -0.007284693 -0.034763749 
 2840000 0.0091396551   -3.1175124 0.0091079202   -3.1084045  0.034966721   0.03244613 -0.019700437  0.033706426 
 2850000  0.009334748   -3.1175674 0.0093023357    -3.108265  0.034185588  0.020011221  0.012961803  0.027098405 
 2860000 0.0088417607   -3.1182583 0.0088110602   -3.1094472  0.035639361  0.028319487 -0.033595413  0.031979424 
 2870000  0.010155934   -3.1164607   0.01012067     -3.10634   0.02974799 -0.0089010076 -0.050875142  0.010423491 
 2880000   0.00884463   -3.1177231 0.0088139194   -3.1089091  0.011774174 -0.046156454 -0.019310018  -0.01719114 
 2890000  0.009171258   -3.1173503 0.0091394133   -3.1082109  0.043324549  0.047402128  0.017906614  0.045363339 
 2900000 0.0091164439   -3.1173832 0.0090847896   -3.1082984  0.040855341   0.04053407   0.01724493  0.040694705 
 2910000 0.0081810649   -3.1170621 0.0081526584   -3.1089095  0.026068722 -0.0076585714  0.032996869  0.009205075 
 2920000 0.0088072898   -3.1160891 0.0087767089   -3.1073124  0.042352272  0.023420787 -0.0018264468   0.03288653 
 2930000 0.0099256297   -3.1169133 0.0098911657   -3.1070221   0.04047649  0.026600923 0.0021491134  0.033538706 
 2940000  0.010033513   -3.1166239 0.0099986741   -3.1066253  0.025784792 -0.011073818 -0.0032597804  0.007355487 
 2950000  0.010159429   -3.1174801  0.010124154   -3.1073559  0.034300468  0.021747314 -0.018068084  0.028023891 
 2960000  0.010002374   -3.1174772 0.0099676438   -3.1075096  0.026920819 -0.0036462681 0.0076019582  0.011637276 
 2970000   0.01018932   -3.1179187  0.010153941   -3.1077648     0.020038 -0.027784372 0.0065410826 -0.0038731858 
 2980000 0.0094026619   -3.1168987 0.0093700137   -3.1075287   0.04105353  0.026985109  0.020580225  0.034019319 
 2990000 0.0088198763   -3.1168493 0.0087892517   -3.1080601  0.023798469 -0.016951797  0.014649411 0.0034233359 
 3000000 0.0092436917   -3.1180989 0.0092115955   -3.1088873  0.020137388 -0.0055596511   0.03596731 0.0072888686 
 3010000 0.0089589804   -3.1176644 0.0089278728   -3.1087365  0.026072283 -0.0033002641 0.0056442673   0.01138601 
 3020000  0.009616475    -3.118231 0.0095830844   -3.1086479  0.025961407 0.0025422626 -0.011924708  0.014251835 
 3030000  0.010173699   -3.1172415  0.010138373   -3.1071031  0.012510426  -0.03910255 0.0029529938 -0.013296062 
 3040000 0.0092235631   -3.1176439 0.0091915368   -3.1084523   0.02691396 0.0007550497 -0.0087023412  0.013834505 
 3050000 0.0089656805   -3.1174438 0.0089345497   -3.1085093  0.024457372 -0.0095982867 -0.0035150551 0.0074295428 
 3060000 0.0098979703   -3.1182866 0.0098636023    -3.108423  0.028199619 0.0034407832 -0.014914274  0.015820201 
 3070000 0.0091397385   -3.1181803 0.0091080033   -3.1090723  0.017164011 -0.030065264 0.0010839561 -0.0064506266 
 3080000  0.010468033    -3.117188  0.010431686   -3.1067563  0.013747205 -0.048002383  0.016023091 -0.017127589 
 3090000 0.0087508241   -3.1167387 0.0087204393   -3.1080182  0.028107503 -0.0036074021 0.0066167379  0.012250051 
 3100000 0.0097763788   -3.1169263  0.009742433   -3.1071838  0.025357686 -0.0074161309 -0.0087781853 0.0089707774 
 3110000 0.0095119549   -3.1169779 0.0094789273    -3.107499  0.035320027  0.018032451 -0.025141155  0.026676239 
 3120000 0.0096928518   -3.1171395  0.009659196   -3.1074803  0.047730934  0.057050502  -0.03391016  0.052390718 
 3130000 0.0097620218   -3.1177422 0.0097281258   -3.1080141  0.029648918  0.010916539 0.0064341119  0.020282729 
 3140000 0.0098441534   -3.1168112 0.0098099723   -3.1070013  0.029527337 0.00064524208 -0.0094497054  0.015086289 
 3150000 0.0096120474    -3.117373 0.0095786723   -3.1077943  0.021686169 -0.011158209 -0.00046411866   0.00526398 
 3160000 0.0096264298   -3.1174145 0.0095930047   -3.1078215  0.016179023 -0.040168632 -0.009705183 -0.011994805 
 3170000 0.0083178294   -3.1161777  0.008288948   -3.1078887  0.026304848 -0.018362468 -0.024399662 0.0039711899 
 3180000 0.0092120529   -3.1169408 0.0091800666   -3.1077608  0.024009727 -0.034494315  0.014799109 -0.0052422938 
 3190000 0.0087441824   -3.1166774 0.0087138207   -3.1079636  0.041386327  0.034599863  0.012223159  0.037993095 
 3200000 0.0092933887   -3.1170312   0.00926112     -3.10777  0.025393498 -0.009695626 -0.0091720285  0.007848936 
 3210000 0.0090772264   -3.1180213 0.0090457082   -3.1089756  0.015898425 -0.030823863 -0.00034154308 -0.007462719 
 3220000 0.0095410393   -3.1180369 0.0095079107    -3.108529  0.022542106 -0.0091897602 -0.00052872482 0.0066761729 
 3230000  0.010117875    -3.115966  0.010082744   -3.1058833  0.047738896  0.055179367  -0.00205142  0.051459131 
 3240000  0.010379472   -3.1186602  0.010343432   -3.1083168   0.01295612  -0.03453106  0.012576894  -0.01078747 
 3250000 0.0094341064   -3.1168609 0.0094013491   -3.1074595  0.040874859   0.04189642 -0.0080276572  0.041385639 
 3260000 0.0095615603    -3.117277 0.0095283604   -3.1077486  0.014445601 -0.033894801  0.011243934 -0.0097245996 
 3270000 0.0092441557   -3.1179107  0.009212058   -3.1086987  0.024827782 -0.0033298109 -0.015710716  0.010748986 
 3280000 0.0093898075   -3.1177108  0.009357204   -3.1083536  0.037317296  0.036848398  0.013581786  0.037082847 
 3290000 0.0091358919   -3.1177008   0.00910417   -3.1085966  0.016795263 -0.024947004   0.01346388 -0.0040758706 
 3300000 0.0082207897    -3.116822 0.0081922453   -3.1086297  0.032296764 0.0042712733  0.010783856  0.018284019 
 3310000 0.0095010968   -3.1174845 0.0094681069   -3.1080164  0.037104526  0.028042154 -0.0029087089   0.03257334 
 3320000  0.008726495   -3.1181374 0.0086961947   -3.1094412  0.021180662 -0.021540695 -0.0059461182 -0.00018001656 
 3330000 0.0093212861   -3.1179339 0.0092889205   -3.1086449  0.018421846  -0.01586119 -0.024898163 0.0012803283 
 3340000  0.010218099   -3.1180265  0.010182619   -3.1078439   0.01095727 -0.051874261 -0.0055365948 -0.020458496 
 3350000 0.0095398551   -3.1172659 0.0095067306   -3.1077592  0.021933172 -0.022413826 -0.013691867 -0.00024032694 
 3360000 0.0095428039   -3.1174997 0.0095096692     -3.10799  0.011461814 -0.046779245 -0.012750999 -0.017658715 
 3370000 0.0082705496   -3.1177109 0.0082418324   -3.1094691  0.030855079 0.0057161743 0.0069199372  0.018285627 
 3380000 0.0094497232   -3.1175349 0.0094169117   -3.1081179  0.022164545 -0.0059733525 -0.012928672 0.0080955962 
 3390000  0.010145766    -3.118416  0.010110537   -3.1083054 0.0043803614 -0.057316546 -0.011508356 -0.026468092 
 3400000 0.0089780835    -3.116849 0.0089469096   -3.1079021  0.025425652  -0.01747115   0.01280512 0.0039772508 
 3410000 0.0090453071   -3.1165977 0.0090138998   -3.1075838  0.031088407 0.0058761412 -0.025150431  0.018482274 
 3420000 0.0090262796   -3.1171538 0.0089949383   -3.1081588  0.014126825 -0.030194695 -0.00096697676 -0.0080339346 
 3430000 0.0091538162   -3.1167162 0.0091220322   -3.1075942  0.018176872 -0.025253655 -0.011410506 -0.0035383914 
 3440000  0.010032053   -3.1174122  0.009997219    -3.107415  0.023151436 -0.0073544277 -0.0008272657 0.0078985042 
 3450000 0.0087955316   -3.1171711 0.0087649916   -3.1084061   0.04060558  0.019972659   0.01810664  0.030289119 
 3460000  0.009489489   -3.1175473 0.0094565394   -3.1080908  0.019215485 -0.018264549  0.020149872 0.00047546796 
 3470000 0.0098584824    -3.118001 0.0098242516   -3.1081767  0.033735359  0.025674978  0.018735979  0.029705169 
 3480000 0.0097980713   -3.1166169 0.0097640502   -3.1068528  0.019625771 -0.022938753 0.0056443668 -0.0016564913 
 3490000  0.010488444   -3.1174057  0.010452026   -3.1069537  0.025579022 -0.0058277049 -0.013566125 0.0098756585 
 3500000 0.0088212437    -3.117936 0.0087906144   -3.1091454  0.033540298  0.026306551 -0.024858265  0.029923425 
 3510000 0.0086678615   -3.1178303 0.0086377648   -3.1091925 -0.0040924285 -0.084746287 -0.0053227913 -0.044419358 
 3520000 0.0087262433   -3.1177881 0.0086959438   -3.1090921  0.024240808  -0.01795522 0.0031209918 0.0031427941 
 3530000 0.0091713634   -3.1173349 0.0091395184   -3.1081954  0.018607115 -0.031228516 0.0019524694 -0.0063107004 
 3540000 0.0091484405   -3.1167003 0.0091166751   -3.1075836    0.0272906 -0.011448067 -0.002128864 0.0079212668 
 3550000  0.010636891   -3.1177557  0.010599958   -3.1071558  0.013596895 -0.045746041 0.00034296986 -0.016074573 
 3560000 0.0099688613   -3.1170724 0.0099342472   -3.1071381  0.015346413 -0.040612487 -0.0096515113 -0.012633037 
 3570000 0.0088329848   -3.1177137 0.0088023147   -3.1089114  0.044800869  0.040609746 0.0094783095  0.042705307 
 3580000  0.010611441   -3.1180136  0.010574596    -3.107439  0.048402582  0.069466177 -0.0040043447   0.05893438 
 3590000  0.010349222   -3.1176041  0.010313287   -3.1072908  0.039782073  0.036792288 -0.0045313056  0.038287181 
 3600000 0.0087297295   -3.1177557 0.0086994179   -3.1090562  0.036153192  0.028459052 -0.019920473  0.032306122 
 3610000 0.0088564818   -3.1166956 0.0088257301   -3.1078698  0.014450483   -0.0438196 -0.017260772 -0.014684559 
 3620000  0.008911406    -3.118251 0.0088804636   -3.1093706  0.045200658  0.052375251 0.0013172506  0.048787954 
 3630000 0.0094498138   -3.1170322 0.0094170019   -3.1076152  0.030468575 0.00078014301 -0.027649292  0.015624359 
 3640000 0.0095308918   -3.1162858 0.0094977984    -3.106788  0.032424976 0.0095622024  0.012512215  0.020993589 
 3650000 0.0098622097   -3.1174051 0.0098279659   -3.1075771  0.037558456  0.027340931 0.0025389364  0.032449694 
 3660000 0.0092097713   -3.1176129 0.0091777929   -3.1084351  0.031817415  0.009565537 -0.0046116177  0.020691476 
 3670000 0.0088430096   -3.1169068 0.0088123047   -3.1080945  0.028439279 -0.0092210018  0.013048577 0.0096091385 
 3680000  0.010696541    -3.116861    0.0106594   -3.1062016  0.012951641 -0.041892815 -0.0060609401 -0.014470587 
 3690000 0.0094109707   -3.1170012 0.0093782937   -3.1076229  0.034400607  0.014951146  0.020369374  0.024675877 
 3700000  0.009427586   -3.1173025 0.0093948514   -3.1079077   0.03843436  0.028646436 -0.022854349  0.033540398 
 3710000 0.0086154473   -3.1163578 0.0085855326   -3.1077723  0.031002663 0.0087073245 -0.0084408664  0.019854994 
 3720000  0.010313701   -3.1172287   0.01027789   -3.1069508   0.02426945 -0.023542628 -0.020176397 0.00036341094 
 3730000 0.0091259123   -3.1177048 0.0090942251   -3.1086106  0.044827901  0.052869452  0.021201082  0.048848677 
 3740000 0.0086613258   -3.1172549 0.0086312517   -3.1086236  0.018934031 -0.026845983 0.0058382889 -0.0039559761 
 3750000 0.0096268295   -3.1168995  0.009593403   -3.1073061  0.025940244 -0.0065064583  0.014817111 0.0097168926 
 3760000  0.011211787   -3.1180477  0.011172858   -3.1068749  0.026539612 -0.003305245   0.01208505  0.011617183 
 3770000 0.0097686912   -3.1179785 0.0097347721   -3.1082437  0.042426376  0.042231972  0.027450324  0.042329174 
 3780000 0.0090298146   -3.1163175 0.0089984611    -3.107319  0.039413507  0.022155025 0.0019425989  0.030784266 
 3790000 0.0097649531   -3.1164438 0.0097310471   -3.1067128  0.039571416   0.03581714 -0.017699895  0.037694278 
 3800000 0.0092511303   -3.1167237 0.0092190083   -3.1075047  0.025027822 -0.0096549474  -0.01705297 0.0076864371 
 3810000  0.010411512   -3.1169266  0.010375361   -3.1065512  0.014584551 -0.031924875 0.00024759666 -0.0086701621 
 3820000 0.0094051524   -3.1175324 0.0093724956   -3.1081599  0.033009694   0.01773965   0.01872204  0.025374672 
 3830000 0.0087088373   -3.1168666 0.0086785983    -3.108188  0.037874518  0.032536418 -0.004885827  0.035205468 
 3840000 0.0098247667   -3.1163978 0.0097906529   -3.1066072  0.029056107 -0.012367561 -0.014657993  0.008344273 
 3850000 0.0096138667   -3.1185591 0.0095804853   -3.1089786  0.029258638  0.012102931  0.031109243  0.020680785 
 3860000 0.0088525876    -3.116659 0.0088218494   -3.1078371  0.023717348 -0.010328058 0.0066700451 0.0066946452 
 3870000 0.0096133401   -3.1170231 0.0095799604   -3.1074432  0.025386855 -0.010797874 -0.035786426 0.0072944903 
 3880000 0.0096537856   -3.1180006 0.0096202655   -3.1083803  0.050746417  0.071690474 0.0044532343  0.061218446 
 3890000 0.0092821293   -3.1176963 0.0092498997   -3.1084464  0.033145047  0.013664374  0.021214258  0.023404711 
 3900000 0.0091530175   -3.1173876 0.0091212362   -3.1082663  0.030044767 0.0019892926 0.0096229318   0.01601703 
 3910000 0.0088814672   -3.1170128 0.0088506288   -3.1081622  0.026537596 -0.010140859 -0.022495226 0.0081983684 
 3920000 0.0091757729   -3.1174919 0.0091439126    -3.108348 0.0091733853 -0.052632058 -0.012720745 -0.021729336 
 3930000  0.010087655    -3.117683  0.010052629   -3.1076303  0.044152768  0.054593164 -0.015985851  0.049372966 
 3940000 0.0092312251   -3.1167274 0.0091991722   -3.1075283  0.043653737  0.037445163 -0.032243343   0.04054945 
 3950000 0.0085382743    -3.117373 0.0085086275   -3.1088644  0.041017304  0.041351788 -0.0072792359  0.041184546 
 3960000 0.0093127825   -3.1179365 0.0092804464   -3.1086561  0.032600409  0.019316713 -0.022467565  0.025958561 
 3970000 0.0091076372    -3.117121 0.0090760135    -3.108045  0.027442115 -0.013473589 -0.0094486211 0.0069842629 
 3980000  0.008904777   -3.1179341 0.0088738576   -3.1090602  0.023819745 -0.0019961417  0.002607623  0.010911802 
 3990000 0.0093917812   -3.1181163 0.0093591708   -3.1087572  0.043204053   0.05341193 -0.002986511  0.048307991 
 4000000 0.0089229781      -3.1159 0.0088919956    -3.107008  0.038608239  0.017280761 0.0060065995    0.0279445 
 4010000 0.0091252712   -3.1172767 0.0090935862   -3.1081831  0.029278964  0.002522376 -0.001212614   0.01590067 
 4020000 0.0095510605   -3.1177689 0.0095178971    -3.108251  0.040340847  0.040965465  0.018503353  0.040653156 
 4030000  0.010228403   -3.1175569  0.010192888    -3.107364  0.044341325  0.044889788 0.0013919972  0.044615556 
 4040000 0.0093255667   -3.1166901 0.0092931863    -3.107397  0.028015507  -0.01220914  0.015556521 0.0079031833 
 4050000 0.0094699232   -3.1175732 0.0094370416   -3.1081361  0.023022654 -0.023921803  -0.01375082 -0.00044957419 
 4060000  0.010078752   -3.1175457  0.010043756    -3.107502  0.045880323  0.056180204 -0.009209262  0.051030263 
 4070000 0.0089431665   -3.1164257 0.0089121138   -3.1075136  0.033191923  0.019942044 -0.0082877286  0.026566984 
 4080000 0.0089237307   -3.1165447 0.0088927455    -3.107652  0.026757777 -0.0052561666 -0.025995819  0.010750805 
 4090000 0.0092270619    -3.117676 0.0091950235    -3.108481  0.025713457 -0.014795933 -0.00084815217 0.0054587618 
 4100000 0.0093462441   -3.1175696 0.0093137918   -3.1082558  0.033666437  0.011733128 -0.0033998925  0.022699783 
 4110000 0.0096926992   -3.1171565  0.009659044   -3.1074974  0.026209693 -0.0045672742  0.021116434   0.01082121 
 4120000  0.009733216   -3.1178167 0.0096994201   -3.1081173  0.029355718 0.0024658023  0.024289634   0.01591076 
 4130000 0.0090730256   -3.1169958 0.0090415221   -3.1079542  0.039460602  0.036115515 0.0036674277  0.037788058 
 4140000  0.010145138   -3.1180985  0.010109912   -3.1079886   0.02684443 0.0077412131 -0.012490026  0.017292821 
 4150000 0.0095627971   -3.1166736 0.0095295929    -3.107144  0.038041048  0.035288033 0.0015124065  0.036664541 
 4160000 0.0093420294   -3.1167046 0.0093095918    -3.107395  0.020316564 -0.032555139  -0.05407829 -0.0061192871 
 4170000 0.0093149356   -3.1171053  0.009282592   -3.1078227  0.023574918 -0.010232695 -0.025443149 0.0066711112 
 4180000 0.0091930151   -3.1167624 0.0091610949   -3.1076013  0.011847542 -0.048533688 -0.0076915698 -0.018343073 
 4190000  0.009512871   -3.1176045 0.0094798402   -3.1081247  0.027736427 0.0098317267  -0.03479293  0.018784077 
 4200000 0.0082424472   -3.1164548 0.0082138276   -3.1082409  0.016639528 -0.027753982   0.01737724 -0.0055572274 
 4210000 0.0092369121   -3.1174668 0.0092048395    -3.108262  0.042745901  0.049971508 0.0063086668  0.046358704 
 4220000 0.0084635695   -3.1169299 0.0084341821   -3.1084957   0.04329435  0.060377506 -0.012572626  0.051835928 
 4230000 0.0099223001   -3.1180249 0.0098878477    -3.108137  0.023159508 -0.014974814 -0.013508458 0.0040923472 
 4240000 0.0096988381    -3.118492 0.0096651616   -3.1088268  0.030678804  0.014304916  0.012041997   0.02249186 
 4250000 0.0095969552   -3.1170752 0.0095636324   -3.1075116  0.045058329  0.051205319 -0.0028994582  0.048131824 
 4260000 0.0093629449   -3.1169824 0.0093304347    -3.107652  0.032571106  0.017469294 -0.0096425151    0.0250202 
 4270000  0.010180478   -3.1178462  0.010145129   -3.1077011  0.024639319 0.0062459737 -0.022866384  0.015442646 
 4280000 0.0098035696   -3.1170937 0.0097695294   -3.1073242  0.025587426 -0.0071345265 -0.017309122   0.00922645 
 4290000 0.0085450065   -3.1161025 0.0085153364   -3.1075872  0.032970127 -0.0022541796  0.011003076  0.015357974 
 4300000 0.0091345666   -3.1175568 0.0091028493   -3.1084539  0.020354409 -0.018936701 -0.0040330735 0.00070885373 
 4310000   0.01053881   -3.1174489  0.010502217   -3.1069467  0.024171543 -0.020662146 0.0037219705 0.0017546985 
 4320000 0.0091798202   -3.1156231 0.0091479458   -3.1064752  0.053293423  0.052430576  0.021186625  0.052861999 
 4330000 0.0096477891   -3.1176466 0.0096142899   -3.1080323  0.027592931 0.00079330438  0.014669547  0.014193118 
 4340000 0.0088269975   -3.1168052 0.0087963482   -3.1080089  0.042665042  0.037848149  0.022953588  0.040256595 
 4350000 0.0086472344   -3.1173427 0.0086172093   -3.1087255  0.014941642 -0.029609438 0.00021070477 -0.0073338981 
 4360000 0.0096262728   -3.1181998 0.0095928483    -3.108607  0.043618454  0.055615076 -0.00084424086  0.049616765 
 4370000 0.0093598863   -3.1175916 0.0093273867   -3.1082642   0.02372648 -0.012901626 -0.0023677436 0.0054124273 
 4380000 0.0092482494   -3.1166371 0.0092161375    -3.107421  0.035890657  0.007205752 0.0051293779  0.021548205 
 4390000  0.010093663   -3.1165903  0.010058616   -3.1065317  0.038671483  0.021197951 -0.030171613  0.029934717 
 4400000 0.0085952873   -3.1173597 0.0085654425   -3.1087942  0.031515668   0.01044078 -0.012377226  0.020978224 
 4410000   0.01000168   -3.1180205 0.0099669522   -3.1080535  0.030138772  0.020204104  0.007787947  0.025171438 
 4420000 0.0099101382   -3.1171849  0.009875728   -3.1073092  0.020954676 -0.028694449 -0.024748048 -0.003869886 
 4430000 0.0095049218    -3.117382 0.0094719186     -3.10791  0.024363896 -0.018239287  0.012887189 0.0030623047 
 4440000 0.0095746349   -3.1177863 0.0095413896   -3.1082449  0.017744215 -0.030867231  0.032370381 -0.0065615079 
 4450000 0.0090834761   -3.1172198 0.0090519363   -3.1081678  0.038363098  0.025879781 0.0022638249   0.03212144 
 4460000 0.0084736697   -3.1174331 0.0084442472   -3.1089889  0.033934853  0.006644573 0.0051633992  0.020289713 
 4470000 0.0095993887    -3.116852 0.0095660575    -3.107286  0.018107054 -0.033816247  -0.01895764 -0.007854596 
 4480000  0.010018457   -3.1185659 0.0099836708   -3.1085823  0.032234683  0.014990111 -0.017053595  0.023612397 
 4490000 0.0098853271   -3.1184833 0.0098510031   -3.1086323  0.025830561 0.0059828727 -0.010211967  0.015906717 
 4500000 0.0093554507   -3.1163787 0.0093229665   -3.1070557  0.032464354  0.021557163 -0.0053364887  0.027010759 
 4510000 0.0099128234   -3.1175505 0.0098784039   -3.1076721  0.027801712  0.013023882 -0.0025038916  0.020412797 
 4520000  0.010262639   -3.1181224  0.010227005   -3.1078954  0.018290797 -0.028947765 -0.010070149 -0.0053284841 
 4530000 0.0094420139   -3.1168512 0.0094092292   -3.1074419  0.041290069  0.047342196  0.031557701  0.044316133 
 4540000  0.009147302   -3.1176007 0.0091155406   -3.1084852  0.031672405  0.010209262  -0.01352336  0.020940833 
 4550000 0.0098921899    -3.117934  0.009857842   -3.1080762  0.026338504 -0.003614027  0.024309184  0.011362239 
 4560000  0.010240292   -3.1181446  0.010204735   -3.1079398  0.021694628 -0.011565781  0.015423653 0.0050644235 
 4570000  0.010602441    -3.116788  0.010565627   -3.1062224  0.025947409 -0.0088416671  0.016034573 0.0085528709 
 4580000 0.0089843142   -3.1169107 0.0089531186   -3.1079575  0.050986421  0.059771938 0.0025465439  0.055379179 
 4590000  0.009020724   -3.1168273  0.008989402   -3.1078379  0.014185899 -0.042731831 -0.0088093081 -0.014272966 
 4600000 0.0080485233   -3.1177803  0.008020577   -3.1097597  0.023534288 -0.019110343 -0.021003069 0.0022119723 
 4610000 0.0085949739    -3.116193 0.0085651303   -3.1076279  0.032815273  0.014474913 -0.0025767481  0.023645093 
 4620000  0.008890352   -3.1176918 0.0088594827   -3.1088323  0.020110015 -0.014497351 -0.011301319 0.0028063321 
 4630000 0.0099105034    -3.117502  0.009876092   -3.1076259  0.011899146 -0.050913167 -0.0062508459 -0.019507011 
 4640000 0.0091872145   -3.1170973 0.0091553144    -3.107942  0.029043419 0.0056608646 -0.019728735  0.017352142 
 4650000 0.0080202539   -3.1174835 0.0079924058   -3.1094911  0.014955609 -0.035779637 -0.014904294 -0.010412014 
 4660000 0.0090858634   -3.1174041 0.0090543153   -3.1083497  0.033729209  0.019118221 0.0020030461  0.026423715 
 4670000 0.0087332302    -3.116861 0.0087029065   -3.1081581  0.023782714 -0.016066227  0.013969838 0.0038582434 
 4680000 0.0097485527   -3.1174328 0.0097147036   -3.1077181  0.038478354  0.033535083  0.032173046  0.036006718 
 4690000 0.0093502259   -3.1182143 0.0093177598   -3.1088965  0.035184288  0.023273101 -0.007915317  0.029228695 
 4700000  0.010016427   -3.1175002  0.009981648   -3.1075186  0.035625531  0.011283442 -0.015426388  0.023454486 
 4710000  0.009706667   -3.1179067 0.0096729633   -3.1082337  0.027893663 -0.00060638112 -0.0059228241  0.013643641 
 4720000 0.0090794815   -3.1178171 0.0090479556   -3.1087691  0.032633662  0.021882894 0.0035570976  0.027258278 
 4730000 0.0097845555   -3.1182454 0.0097505813   -3.1084948   0.02162402 -0.0079929797 -0.018926263   0.00681552 
 4740000    0.0089754   -3.1178266 0.0089442354   -3.1088823  0.025317942 -0.014572155 -0.008397924 0.0053728937 
 4750000 0.0099778386   -3.1187343 0.0099431934   -3.1087911 0.0084350418 -0.048596947 -0.010981989 -0.020080952 
 4760000 0.0088266223   -3.1171223 0.0087959743   -3.1083263  0.042117522  0.029158167  0.029559985  0.035637845 
 4770000 0.0095958079   -3.1162261 0.0095624891   -3.1066636  0.049069192  0.057308154  0.017557902  0.053188673 
 4780000 0.0087023588   -3.1171358 0.0086721423   -3.1084636  0.017446485   -0.0240945 -0.022010831 -0.0033240073 
 4790000 0.0089030957   -3.1152945 0.0088721821   -3.1064223  0.021492264 -0.040123903   0.02224386 -0.0093158195 
 4800000  0.010144088    -3.116343  0.010108865   -3.1062342  0.040259982  0.037810237  0.004610248  0.039035109 
 4810000  0.010348303   -3.1173477  0.010312371   -3.1070353  0.038789441  0.042615611 0.0066924683  0.040702526 
 4820000 0.0094613428    -3.116754 0.0094284909   -3.1073255   0.03276815  0.020819587  0.011263468  0.026793869 
 4830000 0.0096668994   -3.1172293 0.0096333338    -3.107596  0.029565034 -0.0087972329   0.02837778    0.0103839 
 4840000 0.0096130949   -3.1178165 0.0095797161   -3.1082368  0.023281284 -0.00038142651 0.0031832364  0.011449929 
 4850000 0.0099036487   -3.1177658 0.0098692611   -3.1078966  0.024062753 -0.0051849128  0.013974931 0.0094389202 
 4860000 0.0089973334   -3.1180806 0.0089660927   -3.1091145  0.015867023  -0.02585726 -0.0037368294 -0.0049951187 
 4870000  0.010091528   -3.1166008  0.010056488   -3.1065443 0.0042824841 -0.081506967  0.011652193 -0.038612242 
 4880000 0.0092128995   -3.1174116 0.0091809102   -3.1082307   0.02660321  0.010503882 -0.016995435  0.018553546 
 4890000  0.009685554   -3.1170543 0.0096519236   -3.1074024  0.020243157 -0.033795721 0.0025155586 -0.0067762822 
 4900000   0.01000826   -3.1176979 0.0099735089   -3.1077244  0.030771842  0.012652566 -0.026345379  0.021712204 
 4910000 0.0096733839   -3.1175791 0.0096397957   -3.1079393  0.017466942 -0.034137367 -0.0030231315 -0.0083352124 
 4920000 0.0091339912   -3.1176139  0.009102276   -3.1085116  0.026148126 -0.0022873552 -0.005746965  0.011930385 
 4930000  0.010240885   -3.1170903  0.010205327    -3.106885  0.037201374  0.021079566  0.018245643   0.02914047 
 4940000 0.0092928294   -3.1178171 0.0092605626   -3.1085565  0.017432862 -0.020260671 0.0072554006 -0.0014139045 
 4950000 0.0089295806   -3.1184127 0.0088985751   -3.1095141  0.022794166 -0.0050292743 -0.00098732667 0.0088824461 
 4960000 0.0090372154   -3.1173562 0.0090058362   -3.1083504  0.029684728 0.0039653316  0.037363764   0.01682503 
 4970000 0.0094434211   -3.1174728 0.0094106314   -3.1080622  0.027122126 -0.011931681  0.012676632 0.0075952224 
 4980000 0.0091123424   -3.1174514 0.0090807023   -3.1083707  0.033763143  0.033548937  0.025094261   0.03365604 
 4990000 0.0096721027   -3.1159603  0.009638519   -3.1063218  0.033421999 -0.014573158 -0.012637693 0.0094244207 
 5000000 0.0093716313   -3.1174106  0.009339091   -3.1080715  0.035577985  0.022059288  0.013236447  0.028818636 
 5010000 0.0095622284   -3.1174165 0.0095290263   -3.1078874  0.041479092  0.039934203 -0.0074604599  0.040706648 
 5020000 0.0094529296   -3.1172043 0.0094201069   -3.1077842  0.039194177  0.033453182 -0.018004163   0.03632368 
 5030000 0.0093173287   -3.1175867 0.0092849768   -3.1083017  0.047376329  0.058582077 -0.0098241695  0.052979203 
 5040000 0.0094903812   -3.1168111 0.0094574284   -3.1073537  0.028774219 -0.00043971317 -0.023496379  0.014167253 
 5050000 0.0093037123    -3.117271 0.0092714078   -3.1079996   0.01930903  -0.02893471 -0.0055199981 -0.0048128401 
 5060000 0.0089996634   -3.1178276 0.0089684146   -3.1088591  0.027901947  0.012527349 0.0016525252  0.020214648 
 5070000  0.010443316   -3.1168498  0.010407054   -3.1064427  0.022940987    -0.020791 -0.0082761405 0.0010749935 
 5080000 0.0096463861   -3.1168154 0.0096128917   -3.1072025  0.013144736 -0.044697779 -0.00082505365 -0.015776521 
 5090000 0.0089804454   -3.1172759 0.0089492633   -3.1083266  0.036137983  0.025083892 -0.003513693  0.030610937 
 5100000  0.010042091   -3.1173271  0.010007223   -3.1073199  0.035022307  0.032939252  -0.01441944   0.03398078 
 5110000 0.0093995014   -3.1173822 0.0093668642   -3.1080153  0.029160387 -0.0024835904 -0.0032822385  0.013338398 
 5120000 0.0084932413   -3.1170138 0.0084637509     -3.10855  0.017694451 -0.023530493 -0.0024757442 -0.0029180209 
 5130000 0.0093848438   -3.1170036 0.0093522576   -3.1076513  0.052027811  0.069528748 0.0078148534  0.060778279 
 5140000 0.0090992186   -3.1173058 0.0090676241   -3.1082382  0.040529835  0.029807402 -0.026220347  0.035168618 
 5150000 0.0092586458   -3.1172899 0.0092264977   -3.1080635  0.029875247 0.0028933346  0.026154474  0.016384291 
 5160000 0.0092993692   -3.1164983 0.0092670798   -3.1072313  0.029007146 -0.0049002698 -0.006793698  0.012053438 
 5170000 0.0086590011   -3.1160057 0.0086289352   -3.1073768  0.031116297 -0.0050370958 -0.0020566673  0.013039601 
 5180000 0.0099546784   -3.1172759 0.0099201136   -3.1073558  0.038009924  0.025906956  0.016422749   0.03195844 
 5190000 0.0090725082   -3.1164152 0.0090410064   -3.1073742  0.024235939 -0.004657561 -0.018754762  0.009789189 
 5200000 0.0092671941   -3.1167857 0.0092350163   -3.1075507  0.042598883  0.052383637 0.0079816829   0.04749126 
 5210000 0.0083791165   -3.1175552 0.0083500224   -3.1092052  0.019828066 -0.019596807  0.019242065 0.00011562939 
 5220000  0.010232929   -3.1186932  0.010197398   -3.1084958   0.02831572 0.0097302431 -0.016426003  0.019022981 
 5230000 0.0094926679   -3.1173236 0.0094597072   -3.1078639  0.021022504 -0.030948397 -0.032276802 -0.0049629466 
 5240000 0.0094070653   -3.1170747 0.0093744018   -3.1077003  0.021979474 -0.011897376 -0.012224084 0.0050410491 
 5250000 0.0090352904   -3.1175034 0.0090039179   -3.1084995  0.035875365  0.031000833  0.025338348  0.033438099 
 5260000 0.0084790266   -3.1173738 0.0084495855   -3.1089242  0.020329652 -0.023079825  0.028662508 -0.0013750868 
 5270000 0.0096271671   -3.1174167 0.0095937394    -3.107823  0.019797913 -0.016396274 -0.0082100054 0.0017008194 
 5280000  0.010080602   -3.1156027    0.0100456   -3.1055571  0.024778975 -0.015665779  0.019905561 0.0045565978 
 5290000 0.0086940574   -3.1161576 0.0086638697   -3.1074938  0.024035956 -0.010590891 -0.020627004 0.0067225324 
 5300000 0.0091208392   -3.1170939 0.0090891696   -3.1080047  0.023157688  -0.02384791 0.0096270207 -0.00034511083 
 5310000 0.0094578675   -3.1174362 0.0094250277   -3.1080111  0.039946679  0.039214214  0.018991282  0.039580446 
 5320000  0.009427983    -3.117526 0.0093952469   -3.1081307  0.021640738 -0.0031966288 -0.016807124 0.0092220546 
 5330000 0.0093878163   -3.1165725 0.0093552197   -3.1072173  0.024170649 -0.021254534  0.010858606 0.0014580576 
 5340000 0.0090964155   -3.1170133 0.0090648307   -3.1079484   0.01511567  -0.04254576  0.021147726 -0.013715045 
 5350000 0.0095359416   -3.1181508 0.0095028307   -3.1086479  0.034053806   0.02090731  0.019049686  0.027480558 
 5360000 0.0087975586   -3.1176066 0.0087670115   -3.1088396  0.020180642 -0.021459549  0.024013984 -0.00063945355 
 5370000 0.0095598861   -3.1179006  0.009526692   -3.1083739  0.027732946 -0.00076620026  0.019855102  0.013483373 
 5380000 0.0095091132   -3.1174508 0.0094760955   -3.1079747  0.034856187  0.022878816 -0.007339369  0.028867501 
 5390000 0.0098919482   -3.1179345 0.0098576011   -3.1080769  0.032569374  0.010338679 0.0087594655  0.021454026 
 5400000  0.009886422   -3.1170324 0.0098520941   -3.1071803  0.045271833  0.044803192 -0.0047245879  0.045037512 
 5410000 0.0093559324   -3.1169165 0.0093234466    -3.107593  0.040761763   0.02362396 -0.00075279313  0.032192861 
 5420000  0.010017673   -3.1172543 0.0099828895   -3.1072715   0.03282835  0.025376134  0.021743132  0.029102242 
 5430000  0.009595794    -3.116788 0.0095624753   -3.1072255  0.015765811 -0.037084547  0.012436012 -0.010659368 
 5440000 0.0092737325   -3.1177931 0.0092415321   -3.1085515  0.014000087 -0.033503248 0.0070702414 -0.0097515807 
 5450000 0.0096253903   -3.1166105 0.0095919688   -3.1070185  0.049500274  0.064259182  0.021647339  0.056879728 
 5460000 0.0098457106   -3.1169012 0.0098115241   -3.1070897  0.015211533 -0.033351916 0.0088998656 -0.0090701912 
 5470000  0.010114745   -3.1168139  0.010079624   -3.1067343  0.025821051 -0.0044823184   0.01416319  0.010669366 
 5480000  0.009285644   -3.1172565 0.0092534022   -3.1080031  0.011692996 -0.049422959  0.018206329 -0.018864982 
 5490000 0.0093956845   -3.1179083 0.0093630606   -3.1085453  0.017044735    -0.025218  0.026539985 -0.0040866328 
 5500000 0.0099471571   -3.1169139 0.0099126184   -3.1070012  0.034969081  0.011925068  0.018532436  0.023447075 
 5510000 0.0085552946   -3.1174365 0.0085255887   -3.1089109  0.027865032 0.0039510219   0.01550939  0.015908027 
 5520000 0.0095554973   -3.1176383 0.0095223185    -3.108116  0.035068989  0.025264309 -0.020582437  0.030166649 
 5530000 0.0096231367   -3.1169279  0.009589723   -3.1073382  0.036913686  0.025997363  -0.02080227  0.031455525 
 5540000 0.0099628862   -3.1174078 0.0099282929   -3.1074795  0.027905213 -0.0070015752  0.014251801  0.010451819 
 5550000 0.0090188027   -3.1168705 0.0089874874   -3.1078831  0.026940561 -0.016140949 0.0041414536  0.005399806 
 5560000 0.0091999141   -3.1168972 0.0091679699   -3.1077293  0.044371596  0.038313479 -0.0058149452  0.041342538 
 5570000 0.0087277512   -3.1173966 0.0086974465   -3.1086991  0.032387903  0.026493313  0.007947429  0.029440608 
 5580000  0.010131566    -3.116828  0.010096387   -3.1067316  0.040296609  0.029473608  0.018482785  0.034885109 
 5590000 0.0096541097    -3.117065 0.0096205885   -3.1074444  0.017561724 -0.036435256   0.02314259 -0.0094367661 
 5600000 0.0085495283   -3.1179413 0.0085198425   -3.1094214  0.013732787 -0.049176264 -0.0048045851 -0.017721739 
 5610000 0.0091815836   -3.1180253 0.0091497031   -3.1088756  0.021896652 -0.018846314 -0.022209993 0.0015251692 
 5620000 0.0087156458   -3.1172797 0.0086853832   -3.1085943  0.022780051  -0.01100355 -0.029146965 0.0058882506 
 5630000  0.010090085   -3.1180923   0.01005505   -3.1080372  0.029490906 0.0095561498 0.0066045195  0.019523528 
 5640000 0.0089658133   -3.1173474  0.008934682   -3.1084127  0.023485622  -0.01414278  0.010577476 0.0046714211 
 5650000 0.0083051859   -3.1175534 0.0082763484   -3.1092771  0.027688408 0.0051152115 0.0054750495   0.01640181 
 5660000 0.0093345657   -3.1174516  0.009302154   -3.1081495  0.040502665  0.049526211 -0.018812793  0.045014438 
 5670000 0.0098461967    -3.118109 0.0098120085    -3.108297   0.01733534  -0.02438667 -0.011137225 -0.0035256652 
 5680000 0.0092285496   -3.1156007 0.0091965061   -3.1064042  0.029728059 -0.0091521982 -0.0098591147   0.01028793 
 5690000 0.0095690225    -3.118422 0.0095357967   -3.1088862  0.029874095  0.026845386 -0.00025325373   0.02835974 
 5700000  0.010391124   -3.1178968  0.010355044   -3.1075417  0.023026308 -0.0064295024  0.010437544 0.0082984029 
 5710000  0.010417802   -3.1173689  0.010381629   -3.1069873  0.010917816  -0.04965411 -0.005052459 -0.019368147 
 5720000 0.0090156023   -3.1177018 0.0089842981   -3.1087175  0.028458373  0.013591743 -0.028862673  0.021025058 
 5730000 0.0095699272   -3.1176063 0.0095366983   -3.1080696  0.014639461 -0.023044138 -0.008434369 -0.0042023387 
 5740000 0.0097033592   -3.1166205  0.009669667   -3.1069508  0.016505382 -0.032525619 -0.024585871 -0.0080101183 
 5750000 0.0096172318   -3.1177495 0.0095838386   -3.1081657   0.01274535 -0.042255086 -0.014621199 -0.014754868 
 5760000 0.0094540414   -3.1176106 0.0094212149   -3.1081894  0.037965374  0.015975518 0.0042818844  0.026970446 
 5770000 0.0098607524   -3.1184908 0.0098265137   -3.1086643  0.025967487 -0.0032750518 -0.010947546  0.011346218 
 5780000 0.0099143286   -3.1175219 0.0098799038    -3.107642  0.026164452 -0.012972341  0.024968469 0.0065960555 
 5790000 0.0099323744    -3.117257  0.009897887   -3.1073591   0.02189749 -0.015218705  0.011416126 0.0033393928 
 5800000 0.0088465346   -3.1175824 0.0088158175   -3.1087666  0.036528066  0.025614106 0.0045234624  0.031071086 
 5810000 0.0096115734    -3.117403 0.0095781999   -3.1078248  0.026595276 -0.0051386521 0.0019641283  0.010728312 
 5820000 0.0087815073   -3.1164697  0.008751016   -3.1077186   0.02648316 0.0028491925   0.01013044  0.014666176 
 5830000 0.0089522634   -3.1183332 0.0089211791    -3.109412  0.033438212  0.027519543 0.0079650835  0.030478877 
 5840000 0.0093354792   -3.1168945 0.0093030644   -3.1075915  0.021387142 -0.032298467    0.0111197 -0.0054556625 
 5850000  0.010106367   -3.1178946  0.010071275   -3.1078233  0.027680592  0.015169312 -0.019591361  0.021424952 
 5860000 0.0092800583   -3.1172634 0.0092478358   -3.1080156  0.025776476 -0.0021458396 0.0022331111  0.011815318 
 5870000  0.010710258   -3.1181275   0.01067307   -3.1074544  0.027094906  0.011810832 -0.016323885  0.019452869 
 5880000 0.0083802004   -3.1169412 0.0083511025   -3.1085901  0.021215931 -0.022642817  0.023307845 -0.00071344269 
 5890000 0.0094556079   -3.1168186 0.0094227759   -3.1073958  0.027276081 -0.0018065832 -0.001476616  0.012734749 
 5900000 0.0093417949   -3.1173126 0.0093093581   -3.1080032  0.024152514 -0.017827331 -0.0035198243 0.0031625916 
 5910000  0.010064349   -3.1177293  0.010029404   -3.1076999  0.034358386  0.031068496 -0.016712761  0.032713441 
 5920000 0.0098620372   -3.1174359 0.0098277941   -3.1076081   0.04103024   0.04345053  0.011675524  0.042240385 
 5930000 0.0098486538     -3.11723 0.0098144571   -3.1074155  0.024716148 -0.0040204839 0.0058640117  0.010347832 
 5940000 0.0097143714   -3.1176049  0.009680641   -3.1079243  0.034533397  0.027871098 0.0022149711  0.031202248 
 5950000  0.010796638   -3.1162056   0.01075915   -3.1054465  0.008838296 -0.048688672  0.011586346 -0.019925188 
 5960000 0.0089320186   -3.1171365 0.0089010047   -3.1082355  0.039921005  0.027282958 -0.0014269092  0.033601982 
 5970000 0.0091469288   -3.1172698 0.0091151686   -3.1081547  0.039501487  0.026070975 0.0025060666  0.032786231 
 5980000 0.0099828272   -3.1167716 0.0099481646   -3.1068234   0.04139886  0.020869047 -0.0073125608  0.031133953 
 5990000 0.0095626421   -3.1166786 0.0095294385   -3.1071492  0.036296513  0.020512915 -0.011648511  0.028404714 
 6000000 0.0092633473   -3.1167237 0.0092311829   -3.1074925  0.026104653 -0.015381809  0.016630105 0.0053614217 
 6010000 0.0087050168   -3.1170778  0.008674791    -3.108403  0.039973599  0.035513481  0.016678526   0.03774354 
 6020000 0.0094571919   -3.1182741 0.0094243545   -3.1088498  0.036526526   0.03252127 -0.011110095  0.034523898 
 6030000 0.0096998499   -3.1165231 0.0096661698   -3.1068569  0.032837768 0.0095422064  0.012039527  0.021189987 
 6040000 0.0088776788   -3.1172578 0.0088468535    -3.108411  0.025061647 -0.003131375 0.0036018682  0.010965136 
 6050000 0.0098737439   -3.1174229 0.0098394601   -3.1075834   0.04114398  0.037013864  0.028622608  0.039078922 
 6060000  0.009154444   -3.1179595 0.0091226577   -3.1088368   0.03574682  0.045104044  0.013985449  0.040425432 
 6070000 0.0091854159   -3.1178857 0.0091535221   -3.1087321  0.033964521  0.020273617 -0.037056664  0.027119069 
 6080000 0.0091956346   -3.1170786 0.0091637054   -3.1079149  0.023338673 -0.014990916  0.014725447 0.0041738787 
 6090000 0.0094266359   -3.1176343 0.0093939046   -3.1082404  0.018285537 -0.030922964   0.01881548 -0.0063187133 
 6100000 0.0092002054   -3.1171798 0.0091682603   -3.1080116  0.021359979 -0.015375046 -0.027616693 0.0029924668 
 6110000  0.009040771   -3.1178869 0.0090093794   -3.1088775  0.018690697 -0.0084191267 -0.037325003 0.0051357851 
 6120000 0.0087692721   -3.1174607 0.0087388232   -3.1087218  0.011898027 -0.038733229 -0.0056926549 -0.013417601 
 6130000  0.010361799   -3.1175134   0.01032582   -3.1071876  0.010531247 -0.052189678  0.013480086 -0.020829215 
 6140000 0.0080399729   -3.1176794 0.0080120563   -3.1096673  0.022564686 -0.00095216009 -0.0041425546  0.010806263 
 6150000  0.010383321   -3.1177058  0.010347268   -3.1073585   0.02794972 -0.0020180492  0.022256077  0.012965835 
 6160000 0.0088056056   -3.1177996 0.0087750306   -3.1090245  0.029810316  0.018605512 -0.0028933086  0.024207914 
 6170000 0.0086553957   -3.1177162 0.0086253423   -3.1090908   0.04471171  0.050549361 -0.0070081261  0.047630535 
 6180000 0.0087012359    -3.117825 0.0086710233    -3.109154  0.023960388 -0.0092654439  0.012411486 0.0073474719 
 6190000 0.0096279878   -3.1169851 0.0095945573   -3.1073906  0.014817498  -0.03832102 -0.0039195444 -0.011751761 
 6200000   0.00977567   -3.1166402 0.0097417267   -3.1068984  0.021219812 -0.030581626 0.00084180951 -0.0046809073 
 6210000 0.0082312222   -3.1171796 0.0082026415   -3.1089769   0.04134288  0.037352658 -0.011203786  0.039347769 
 6220000  0.010448649   -3.1169547  0.010412369   -3.1065424  0.032298943  0.014394856  0.023413687    0.0233469 
 6230000  0.010596958   -3.1176284  0.010560163   -3.1070682  0.017618634 -0.016432174 -0.0093573325 0.00059323028 
 6240000 0.0089300769   -3.1159932 0.0088990697   -3.1070941  0.015813935 -0.046364106 -0.017936358 -0.015275085 
 6250000 0.0085209501   -3.1175031 0.0084913635   -3.1090117  0.021063954 -0.017385601 -0.008704481 0.0018391764 
 6260000 0.0088099507   -3.1170955 0.0087793606   -3.1083161  0.036507501  0.017016082 0.0070146767  0.026761792 
 6270000 0.0093647569   -3.1182915 0.0093322404   -3.1089593 0.0069454119 -0.050681474 -0.0098613682 -0.021868031 
 6280000 0.0099289071   -3.1172946 0.0098944318   -3.1074002  0.033013086  0.018464906 0.0050303311  0.025738996 
 6290000 0.0098138665   -3.1167863 0.0097797905   -3.1070065  0.036350362  0.017960034 0.0059675298  0.027155198 
 6300000 0.0095758882     -3.11732 0.0095426386   -3.1077773  0.025402882 0.0034629279 -0.015086817  0.014432905 
 6310000  0.009306146   -3.1174748  0.009273833   -3.1082009  0.031255118  0.017178534 -0.015833234  0.024216826 
 6320000 0.0098414064   -3.1166499 0.0098072348   -3.1068426  0.015793693 -0.049800784 -0.020589628 -0.017003545 
 6330000 0.0095692815   -3.1170652 0.0095360549   -3.1075292  0.031918911 -0.010484592 -0.0053760197   0.01071716 
 6340000 0.0090532461   -3.1163512 0.0090218112   -3.1073294  0.022574777 -0.027553502 -0.040217568 -0.0024893625 
 6350000 0.0089357882   -3.1172812 0.0089047612   -3.1083764  0.020254077 -0.026231302 0.0030197172 -0.0029886124 
 6360000 0.0088923507    -3.116523 0.0088614745   -3.1076615  0.037482523  0.013985238 -0.018442363  0.025733881 
 6370000 0.0098864584   -3.1180887 0.0098521304   -3.1082366  0.023262696 -0.0077589448 -0.016959041 0.0077518758 
 6380000 0.0092002737   -3.1177488 0.0091683283   -3.1085804  0.029886695  0.015390483 -0.010977185  0.022638589 
 6390000 0.0091885592   -3.1173092 0.0091566545   -3.1081525  0.033291876  0.028338631  -0.02717757  0.030815253 
 6400000 0.0086397387   -3.1170341 0.0086097396   -3.1084244  0.036657145   0.02706248 -0.016023492  0.031859812 
 6410000 0.0091048291   -3.1169039 0.0090732151   -3.1078307  0.033830979  0.011846486 0.0059578219  0.022838733 
 6420000 0.0087682402   -3.1165503 0.0087377949   -3.1078125  0.034210773 0.0070618952 -0.0081920699  0.020636334 
 6430000 0.0088752119   -3.1178137 0.0088443952   -3.1089693  0.016016182 -0.031522435 -0.0081267843 -0.0077531264 
 6440000  0.009074742   -3.1175623 0.0090432325   -3.1085191  0.028402768 -0.0047291074 -0.0097609947   0.01183683 
 6450000 0.0099111868   -3.1170615  0.009876773   -3.1071847  0.033305965 0.0092737016 0.0042994211  0.021289833 
 6460000 0.0090282713   -3.1167185 0.0089969232   -3.1077215  0.025094979 -0.014945738   0.01355831 0.0050746205 
 6470000 0.0088318917   -3.1178488 0.0088012254   -3.1090476   0.03132468  0.027677417 0.0015585196  0.029501049 
 6480000 0.0092943172   -3.1169174 0.0092620452   -3.1076553  0.023795045 -0.013941037  0.024397666 0.0049270042 
 6490000 0.0094753823   -3.1169061 0.0094424816   -3.1074636  0.030088458 0.0044550167   0.02144382  0.017271737 
 6500000 0.0094409813   -3.1164895 0.0094082001   -3.1070813  0.029414251 -0.0097967549  0.032957971 0.0098087479 
 6510000 0.0094598235   -3.1176991 0.0094269769   -3.1082722  0.042739523  0.038017461  0.038081243  0.040378492 
 6520000 0.0090584305   -3.1168441 0.0090269776   -3.1078171  0.025640863 -0.012222562  0.025844859 0.0067091506 
 6530000 0.0089487903   -3.1166789 0.0089177181   -3.1077612  0.028781159 -0.0063228295  0.032097301  0.011229165 
 6540000  0.010476991   -3.1165164  0.010440613   -3.1060758  0.042015179  0.019480173 -0.0051148263  0.030747676 
 6550000  0.010076175   -3.1174521  0.010041188   -3.1074109  0.034120314 0.0099071751  0.034859453  0.022013744 
 6560000 0.0092565966   -3.1159616 0.0092244556   -3.1067371  0.037121932 0.0099230459 0.0095353776  0.023522489 
 6570000 0.0098849653   -3.1179919 0.0098506425   -3.1081413  0.035501236  0.029649923 0.0043103607  0.032575579 
 6580000 0.0088430433     -3.11681 0.0088123383   -3.1079977  0.029367908 0.0060831997 -0.0052612851  0.017725554 
 6590000 0.0098754122   -3.1156629 0.0098411226   -3.1058218  0.032565971 -0.0044125525 0.0055525136  0.014076709 
 6600000 0.0087153934    -3.116822 0.0086851316   -3.1081368  0.026647718 -0.0085118648 -0.001934914 0.0090679266 
 6610000 0.0099476595   -3.1169173  0.009913119   -3.1070041  0.020805554 -0.023628367 0.0067832434 -0.0014114065 
 6620000 0.0087198439   -3.1180482 0.0086895667   -3.1093586  0.042117981  0.052227055 0.0029478184  0.047172518 
 6630000 0.0084937061   -3.1168696 0.0084642141   -3.1084054  0.033658683   0.01332093   0.01268551  0.023489806 
 6640000 0.0085931255   -3.1167378 0.0085632882   -3.1081746  0.030390305 -0.00038780199 0.0076799633  0.015001252 
 6650000 0.0089176691   -3.1177364  0.008886705   -3.1088497  0.040167476  0.048595246 0.0033326476  0.044381361 
 6660000 0.0099074927   -3.1168935 0.0098730916   -3.1070204  0.053242068  0.069946584  0.024034218  0.061594326 
 6670000 0.0098793143   -3.1168923 0.0098450111   -3.1070473  0.042647413  0.016766019 0.00057092544  0.029706716 
 6680000 0.0097970552   -3.1170587 0.0097630376   -3.1072956  0.015848027 -0.033258737  0.011146368 -0.0087053552 
 6690000 0.0096506246   -3.1177626 0.0096171155   -3.1081454  0.019982407 -0.017600881 -0.0022537266 0.0011907633 
 6700000 0.0096938366   -3.1172771 0.0096601774   -3.1076169  0.014765247  -0.03769607  0.026269434 -0.011465412 
 6710000 0.0093246985   -3.1175592 0.0092923211   -3.1082669  0.018994005 -0.022823498   0.02055216 -0.0019147461 
 6720000 0.0096117534   -3.1172272 0.0095783792   -3.1076488  0.037804282  0.033272794   0.01569362  0.035538538 
 6730000 0.0092686826   -3.1174871 0.0092364997   -3.1082506  0.027815111 0.0073116344 -0.019247187  0.017563373 
 6740000 0.0090579584   -3.1165495 0.0090265072    -3.107523  0.019364608 -0.023708239 0.0095203933 -0.0021718153 
 6750000 0.0093731189   -3.1178184 0.0093405734   -3.1084778  0.033866122  0.024897429  0.012702991  0.029381776 
 6760000 0.0090890546    -3.117624 0.0090574954   -3.1085666  0.021295647  -0.01917451  0.021764347 0.0010605685 
 6770000 0.0090560197   -3.1173961 0.0090245752   -3.1083715  0.031552678  0.020082045  0.020237476  0.025817361 
[...]
 8810000 0.0094433997   -3.1178875 0.0094106101   -3.1084769  0.032651222  0.010523188  0.010353894  0.021587205 
 8820000  0.008546212   -3.1164458 0.0085165377   -3.1079292  0.022191077  -0.02066505  0.012897433 0.00076301371 
 8830000   0.01046388   -3.1171366  0.010427547   -3.1067091  0.020720022 -0.0088601608 -0.012079855 0.0059299308 
 8840000  0.009859087   -3.1171389 0.0098248541    -3.107314  0.011292978 -0.054084156 -0.026584466 -0.021395589 
 8850000 0.0092567606    -3.118023 0.0092246191   -3.1087984  0.012650017 -0.039219899 -0.013614744 -0.013284941 
 8860000 0.0091021607   -3.1161458  0.009070556   -3.1070753   0.01928483 -0.028629725 -0.0061530574 -0.0046724473 
 8870000  0.009866708   -3.1176656 0.0098324486   -3.1078331  0.054619254  0.083320159 -0.015968189  0.068969706 
 8880000 0.0096762681   -3.1175256   0.00964267    -3.107883  0.029889848 0.0094825921 0.0092230073   0.01968622 
 8890000 0.0097858593   -3.1168447 0.0097518807   -3.1070928  0.026506132 -0.019547778 -0.014621676 0.0034791773 
 8900000 0.0088424872   -3.1171305 0.0088117841   -3.1083187   0.03536656  0.028800738  -0.01504996  0.032083649 
 8910000 0.0095944215   -3.1174813 0.0095611076   -3.1079202  0.017883906 -0.028333461 0.0089318111 -0.0052247771 
 8920000  0.010569085   -3.1178894  0.010532387    -3.107357  0.021001328 -0.014195394  0.016517392 0.0034029668 
 8930000 0.0097378428   -3.1175425 0.0097040309   -3.1078385  0.022652886 -0.021966172 -0.040514334 0.00034335654 
 8940000 0.0089926027   -3.1171043 0.0089613784   -3.1081429  0.041413172  0.039635024   0.02155719  0.040524098 
 8950000 0.0097708189   -3.1169572 0.0097368924   -3.1072203  0.042210049  0.043131224 -0.014969089  0.042670637 
 8960000  0.008917567   -3.1163966 0.0088866032     -3.10751     0.037311  0.021310458 -0.032579261  0.029310729 
 8970000  0.008485493   -3.1169776 0.0084560295   -3.1085216  0.028867136 0.0057188939  0.026716315  0.017293015 
 8980000 0.0092047072   -3.1162504 0.0091727464   -3.1070777  0.027533313 -0.017090292  0.032261632 0.0052215106 
 8990000 0.0082388867   -3.1162679 0.0082102795   -3.1080577  0.045640004  0.035627947  0.003648202  0.040633975 
 9000000 0.0097030139   -3.1177337 0.0096693229   -3.1080644 0.0070760491 -0.058931659 -0.017650389 -0.025927805 
 9010000 0.0096476762    -3.118222 0.0096141774   -3.1086078 0.0080224579 -0.049330617 -0.020470816  -0.02065408 
 9020000 0.0094435522   -3.1171021 0.0094107621   -3.1076913  0.034303156  0.021165454 0.00020913297  0.027734305 
 9030000 0.0089049207   -3.1174965 0.0088740008   -3.1086225  0.036123894  0.017808725 -0.0055131036   0.02696631 
 9040000 0.0097631768    -3.117011 0.0097292769   -3.1072818     0.031972  0.013532897 -0.035332076  0.022752449 
 9050000  0.009444356   -3.1165007 0.0094115631   -3.1070891  0.041167402  0.014247157 -0.017828608   0.02770728 
 9060000 0.0095413843   -3.1171254 0.0095082545   -3.1076172  0.030979719  0.010878982 0.0032508383  0.020929351 
 9070000 0.0087327358   -3.1170651 0.0087024138   -3.1083626  0.032105441  0.020374925  0.011307421  0.026240183 
 9080000  0.010946084   -3.1164787  0.010908077   -3.1055706  0.046775103   0.05810306  -0.01306756  0.052439081 
 9090000 0.0097100135   -3.1172125 0.0096762981   -3.1075362  0.018944005 -0.015286893 -0.026596076 0.0018285555 
 9100000 0.0089885405   -3.1177891 0.0089573303   -3.1088318  0.035263334   0.01760812  -0.01713866  0.026435727 
 9110000 0.0095122725   -3.1167145 0.0094792438   -3.1072352  0.024598633 -0.020395395 0.0023084519 0.0021016189 
 9120000  0.010405106   -3.1176331  0.010368977   -3.1072641    0.0163299  -0.05361823 0.0022358795 -0.018644165 
 9130000 0.0091227492   -3.1165879  0.009091073   -3.1074969  0.017297723 -0.035745217  0.022323856 -0.0092237469 
 9140000 0.0097040841   -3.1172667 0.0096703894   -3.1075963  0.030189887 -0.0030171396  0.010693867  0.013586374 
 9150000 0.0091887282   -3.1182657 0.0091568229   -3.1091088  0.035626409  0.027088547 -0.0017534382  0.031357478 
 9160000   0.00934011   -3.1171785 0.0093076791   -3.1078708  0.040378348  0.038612556 0.00076212305  0.039495452 
 9170000 0.0095373089   -3.1172474 0.0095041932   -3.1077432  0.024513104 -0.0019398233 -0.001727066  0.011286641 
 9180000 0.0090959727    -3.116603 0.0090643895   -3.1075386  0.036613579  0.016369793 -0.010470192  0.026491686 
 9190000  0.010029256   -3.1173404 0.0099944321   -3.1073459  0.020497043 -0.020249365 0.0064861534 0.00012383873 
 9200000 0.0097618134   -3.1174658 0.0097279182   -3.1077379  0.031021771 0.0090451014 -0.038757924  0.020033436 
 9210000 0.0088834252   -3.1174712   0.00885258   -3.1086186  0.025449045 -0.0048906177  0.021566044  0.010279213 
 9220000 0.0089919455   -3.1169995 0.0089607235   -3.1080387  0.027271573 -0.012071973 -0.0037727059 0.0075997999 
 9230000  0.009742037   -3.1180114 0.0097082105   -3.1083032  0.029871887 0.0062336728 -0.0022464005   0.01805278 
 9240000 0.0095915655   -3.1173749 0.0095582614   -3.1078167  0.017995054 -0.029950023   0.03428642 -0.0059774846 
 9250000 0.0088624643   -3.1174909 0.0088316918   -3.1086592   0.03284603  0.021908578 0.0012407412  0.027377304 
 9260000 0.0098844696   -3.1172739 0.0098501485   -3.1074238  0.032118245   0.02539092   0.00301091  0.028754583 
 9270000 0.0086193489   -3.1169475 0.0085894206   -3.1083581  0.041602919  0.034023562  0.015465791   0.03781324 
 9280000 0.0095098652   -3.1173935 0.0094768448   -3.1079166  0.031069464 0.0035341432 0.0080741886  0.017301804 
 9290000 0.0093277438   -3.1166065 0.0092953558   -3.1073112  0.027196171 0.0059190992 0.0090725771  0.016557635 
 9300000 0.0097307048   -3.1174471 0.0096969177   -3.1077502  0.049550603  0.056714371  -0.01414417  0.053132487 
 9310000 0.0091879825   -3.1175463 0.0091560797   -3.1083902  0.018476777 -0.037087818 -0.014838022 -0.0093055205 
 9320000 0.0085389858   -3.1175291 0.0085093366   -3.1090198  0.027549867 0.0055605537 -0.013523154   0.01655521 
 9330000 0.0092505102   -3.1169486 0.0092183904   -3.1077303  0.039011889   0.02043108  0.020716892  0.029721484 
 9340000 0.0091713788   -3.1178459 0.0091395337   -3.1087064  0.039450257  0.041079556  0.016811496  0.040264906 
 9350000   0.01033795   -3.1172488  0.010302055   -3.1069467  0.013273787 -0.048859083 0.0060347582 -0.017792648 
 9360000  0.009095875   -3.1172901 0.0090642921   -3.1082258  0.021484452  -0.01001575 -0.0014030039 0.0057343511 
 9370000 0.0094476184   -3.1167435 0.0094148142   -3.1073286  0.034250709  0.028007636 0.0034494229  0.031129173 
 9380000 0.0084579563   -3.1168874 0.0084285884   -3.1084588  0.029572161  0.010301969  0.012414363  0.019937065 
 9390000 0.0093077734    -3.116851 0.0092754548   -3.1075756  0.044502467  0.036279849 -0.00052127557  0.040391158 
 9400000 0.0086625347    -3.116823 0.0086324565   -3.1081905  0.011290632 -0.058960122 -0.023142467 -0.023834745 
 9410000  0.010485079   -3.1174761  0.010448673   -3.1070274  0.021324843 -0.018090449 -0.0053780821 0.0016171966 
 9420000 0.0096007939   -3.1169682 0.0095674578   -3.1074008  0.014504918  -0.04101467 -0.024388011 -0.013254876 
 9430000 0.0099568216    -3.117044 0.0099222493   -3.1071217  0.023549009 -0.014440752 0.0011952009 0.0045541283 
 9440000 0.0097000456   -3.1171976 0.0096663649   -3.1075313  0.039461399  0.041761862 -0.033995835  0.040611631 
 9450000  0.010060858   -3.1171898  0.010025924   -3.1071639  0.027847871 -0.0068208904  0.035447162   0.01051349 
 9460000 0.0098619873   -3.1168464 0.0098277442   -3.1070187 0.0056116857 -0.071140923 0.0080046529 -0.032764619 
 9470000  0.010248983   -3.1176504  0.010213396    -3.107437  0.043304199  0.058115826 -0.0061082118  0.050710012 
 9480000 0.0089171295   -3.1171794 0.0088861673   -3.1082932  0.032441525   0.01748697 0.0022443344  0.024964248 
 9490000 0.0096878351   -3.1180361 0.0096541967   -3.1083819   0.02477149 -0.008724574 0.0051299159 0.0080234582 
 9500000 0.0096745991   -3.1175644 0.0096410067   -3.1079234  0.037509852  0.028946174 -0.017160192  0.033228013 
 9510000   0.01038743   -3.1177455  0.010351363   -3.1073942  0.034140711  0.010519626 0.0066480341  0.022330168 
 9520000 0.0098116302   -3.1166333  0.009777562   -3.1068557   0.02566714 -0.012107374 0.0035655409 0.0067798829 
 9530000 0.0089176943   -3.1173861 0.0088867301   -3.1084994  0.030180895 0.0050515216 0.0051445682  0.017616208 
 9540000 0.0092833149    -3.117554 0.0092510811   -3.1083029  0.037561652  0.033156167  0.022384723   0.03535891 
 9550000 0.0089791937   -3.1169283 0.0089480159   -3.1079803  0.018908368 -0.029552067 -0.012131773 -0.0053218499 
 9560000 0.0095537299   -3.1181508 0.0095205572   -3.1086302  0.027536855  0.014332095 -0.0099536173  0.020934475 
 9570000 0.0093598156   -3.1170309 0.0093273162   -3.1077035  0.021684561 -0.013950252 -0.0079288589 0.0038671548 
 9580000 0.0089917654   -3.1175998  0.008960544   -3.1086393  0.024122096 -0.0069675937 0.0066097799 0.0085772514 
 9590000 0.0086792629   -3.1173966 0.0086491266   -3.1087474  0.026898039 -0.0054868684 -0.026147272  0.010705586 
 9600000 0.0096137915    -3.117544 0.0095804103   -3.1079636  0.042030064  0.035484147 -0.0052709653  0.038757106 
 9610000  0.010016702   -3.1166098 0.0099819219   -3.1066279  0.035685305  0.015267273 -0.0028446526  0.025476289 
 9620000 0.0098864578   -3.1169014 0.0098521298   -3.1070493  0.029100564 0.0044227361 -0.022264647   0.01676165 
 9630000 0.0094408736   -3.1172862 0.0094080928   -3.1078781  0.022669175 -0.022174703  0.012683593 0.00024723641 
 9640000 0.0097279979   -3.1176501 0.0096942201   -3.1079559  0.038033496  0.047396923 0.0011066487  0.042715209 
 9650000 0.0089711421   -3.1178313 0.0089399923   -3.1088913  0.027674777 -0.0059268576  0.016576525   0.01087396 
 9660000 0.0096072792   -3.1178598 0.0095739206   -3.1082858  0.037887308  0.034179221  0.010394668  0.036033265 
 9670000 0.0096166591   -3.1164117 0.0095832679   -3.1068284   0.02799767 -0.015503029  0.017787714 0.0062473201 
 9680000 0.0099771764   -3.1177075 0.0099425335    -3.107765  0.035611775  0.025293217 -0.015002756  0.030452496 
 9690000  0.009394252   -3.1175824 0.0093616331   -3.1082208  0.022053738 -0.0060569368 0.0033441922 0.0079984008 
 9700000 0.0085486133   -3.1171395 0.0085189306   -3.1086206  0.020056322 -0.020159281 -0.0043808588 -5.1479329e-05 
 9710000 0.0095149698   -3.1176448 0.0094819317   -3.1081629  0.029421953 0.0088710231  0.012427059  0.019146488 
 9720000 0.0090766425   -3.1171441 0.0090451264   -3.1080989  0.025750237 -0.010169478 -0.012513236 0.0077903795 
 9730000 0.0090624226   -3.1175215 0.0090309558   -3.1084905  0.026958853 0.0077788756  0.027123953  0.017368865 
 9740000 0.0090631147   -3.1169385 0.0090316455   -3.1079068  0.020727626 -0.040719806 -0.0017735398 -0.0099960897 
 9750000  0.008807253   -3.1165112 0.0087766722   -3.1077345  0.017126163 -0.038641766 -0.0051224262 -0.010757802 
 9760000 0.0088869646   -3.1170972  0.008856107   -3.1082411   0.02888875 0.0019035391 -0.0098895132  0.015396145 
 9770000 0.0089080025   -3.1175769 0.0088770719   -3.1086999  0.043610799  0.057733101 -0.0052119574   0.05067195 
 9780000 0.0099748202   -3.1184481 0.0099401854   -3.1085079  0.016919941  -0.02763008 0.0071680227 -0.0053550693 
 9790000 0.0097673794   -3.1176278 0.0097334649   -3.1078943  0.031972882  0.027898112 0.00043332318  0.029935497 
 9800000 0.0086896794   -3.1169949 0.0086595069   -3.1083354  0.030293644 0.0068574289 0.0018548595  0.018575536 
 9810000 0.0094784294   -3.1175789 0.0094455182   -3.1081334  0.026142912 0.0004280428 -0.015103418  0.013285478 
 9820000  0.008941639   -3.1184426 0.0089105916    -3.109532  0.030435047  0.013124653 -0.017832426   0.02177985 
 9830000  0.010777554   -3.1178684  0.010740132   -3.1071282  0.025320935 -0.0066832425  0.012117319 0.0093188464 
 9840000 0.0091585703   -3.1168002 0.0091267697   -3.1076734  0.032794683  0.027667465 0.0047547447  0.030231074 
 9850000  0.008816095   -3.1164367 0.0087854836   -3.1076512  0.047203719  0.029711753  0.011757418  0.038457736 
 9860000  0.009682249   -3.1178446   0.00964863    -3.108196  0.047112758  0.060015714  0.021829727  0.053564236 
 9870000 0.0094906517   -3.1175426 0.0094576981   -3.1080849  0.026762849  0.004248782 -0.017863357  0.015505816 
 9880000  0.010104728   -3.1173251  0.010069642   -3.1072554  0.031845404 0.0037952362  0.010648907   0.01782032 
 9890000 0.0089037325   -3.1176622 0.0088728168   -3.1087894   0.02196036 -0.013328824  0.014482968 0.0043157683 
 9900000 0.0095703151   -3.1167695 0.0095370848   -3.1072324  0.026177223 -0.014316118  0.017347278 0.0059305527 
 9910000 0.0092770029   -3.1178674 0.0092447911   -3.1086226  0.045054679  0.050837554 0.0042226403  0.047946117 
 9920000 0.0095333652   -3.1175159 0.0095002633   -3.1080157  0.030649634 0.0017081478 0.0044037183  0.016178891 
 9930000  0.008472545   -3.1170051 0.0084431264   -3.1085619  0.032980831 0.0041654557  0.030235328  0.018573143 
 9940000 0.0094118535   -3.1174509 0.0093791734   -3.1080718  0.045015891   0.05412003 -0.011348157   0.04956796 
 9950000 0.0087201372   -3.1172575 0.0086898589   -3.1085677  0.045160038  0.042781854 -0.0011967903  0.043970946 
 9960000 0.0098768813   -3.1175709 0.0098425865   -3.1077283  0.033276087  0.020041788   0.01616411  0.026658938 
 9970000 0.0079780396   -3.1170652  0.007950338   -3.1091148  0.036763634  0.031120868 -0.007013845  0.033942251 
 9980000  0.009814581   -3.1174081 0.0097805025   -3.1076276  0.025353682 -0.0074751321 -0.0018753728  0.008939275 
 9990000 0.0094003827   -3.1180457 0.0093677425    -3.108678  0.025097939 0.0078877631  0.010264599  0.016492851 
10000000  0.010519576   -3.1182591   0.01048305    -3.107776  0.020570829 -0.0096605158 -0.015176383 0.0054551567 
10010000  0.010033459   -3.1176903 0.0099986206   -3.1076917  0.029905249 0.0013725672 -0.013393372  0.015638908 
10020000 0.0097358016   -3.1181612 0.0097019968   -3.1084592  0.023986865 -0.021435922 0.0058029467 0.0012754717 
10030000 0.0089753817   -3.1171626 0.0089442172   -3.1082184  0.031959875  0.008961252  0.025828144  0.020460564 
10040000  0.009240993   -3.1165903 0.0092089063   -3.1073814   0.04769567  0.049271466 0.0079517118  0.048483568 
10050000  0.010033257   -3.1174464 0.0099984195    -3.107448  0.046249455  0.051824579 0.0051549243  0.049037017 
10060000 0.0095898549   -3.1168859 0.0095565568   -3.1073294  0.038451754  0.016567803  0.015359694  0.027509778 
10070000 0.0088006729   -3.1176095  0.008770115   -3.1088394  0.015925189 -0.024665614 -0.015338376 -0.0043702129 
10080000 0.0093150967   -3.1170146 0.0092827526   -3.1077319  0.025433041 -0.011732377 -0.032583536 0.0068503317 
10090000 0.0092409855    -3.116831 0.0092088987   -3.1076221  0.030511256 0.0015338159 -0.0051952219  0.016022536 
10100000 0.0093076197   -3.1183171 0.0092753016   -3.1090418  0.013952955 -0.029026611 -0.013357313 -0.0075368279 
10110000 0.0097824563   -3.1169508 0.0097484894   -3.1072024  0.018374936 -0.021437294  0.006603429 -0.0015311794 
10120000 0.0081720092   -3.1174134 0.0081436341   -3.1092697  0.011824232 -0.044543321 0.0093066825 -0.016359545 
10130000 0.0094141308   -3.1171782 0.0093814429   -3.1077968  0.017399956 -0.036092683 0.0071859642 -0.0093463634 
10140000 0.0087974671   -3.1172951 0.0087669204   -3.1085282  0.037578535  0.021735333  0.024777875  0.029656934 
10150000 0.0093342298   -3.1174491 0.0093018193   -3.1081473  0.040584128  0.029166184 -0.027619039  0.034875156 
10160000 0.0097715757   -3.1166724 0.0097376466   -3.1069347  0.040903042   0.03100761 -0.031834627  0.035955326 
10170000 0.0083042704   -3.1169769 0.0082754361   -3.1087015  0.013751525 -0.046005698     0.017613 -0.016127087 
10180000 0.0094664454   -3.1176695 0.0094335758   -3.1082359  0.020137987 -0.018794204   0.01040273 0.00067189139 
10190000 0.0087401205   -3.1171924 0.0087097729   -3.1084827   0.03245186  0.018279115 -0.013091989  0.025365487 
10200000 0.0090439232   -3.1174753 0.0090125207   -3.1084628   0.01637977 -0.027144668 -0.0027028353 -0.0053824487 
10210000 0.0091712043   -3.1176009 0.0091393599   -3.1084616  0.041460186   0.03350608 -0.024588677  0.037483133 
10220000 0.0093440663   -3.1171465 0.0093116216   -3.1078349  0.043714507   0.03058531 -0.003511131  0.037149908 
10230000 0.0091743796    -3.117678 0.0091425241   -3.1085355  0.034024961  0.026914025 -0.0043061303  0.030469493 
10240000 0.0097145136   -3.1170175 0.0096807827   -3.1073367  0.028702511 -0.0062960892  0.007033317  0.011203211 
10250000 0.0089950656   -3.1175065 0.0089638327   -3.1085426 0.0044664058 -0.069599969 -0.0059523437 -0.032566782 
10260000 0.0087908951   -3.1174457 0.0087603711   -3.1086853  0.020535636 -0.013913105  0.014938784 0.0033112653 
10270000 0.0087281697   -3.1176694 0.0086978635   -3.1089716  0.011159072 -0.040959312 0.0099239816  -0.01490012 
10280000 0.0081856846   -3.1178455 0.0081572621   -3.1096882  0.016282869 -0.032599222 -0.0036629983 -0.0081581767 
10290000  0.009622267   -3.1180107 0.0095888563   -3.1084219  0.034023847  0.022834894 0.0035020091   0.02842937 
10300000 0.0093916874   -3.1168186 0.0093590773   -3.1074595   0.01462146 -0.038899805  0.020008726 -0.012139173 
10310000  0.010277943   -3.1172537  0.010242255   -3.1070115  0.051496103  0.054452367 0.0010788671  0.052974235 
10320000 0.0097547209    -3.118181 0.0097208503   -3.1084601  0.015274166 -0.031509989  -0.01129996 -0.0081179111 
10330000 0.0099785271   -3.1183742 0.0099438795   -3.1084303  0.024565227 -0.00031706758 -0.015086482   0.01212408 
10340000 0.0086006846   -3.1168956 0.0085708211   -3.1083248  0.041725901  0.021021143 -0.0029863562  0.031373522 
10350000 0.0098457908   -3.1180161  0.009811604   -3.1082045  0.043342185  0.046811371 0.0044697827  0.045076778 
10360000 0.0090750953   -3.1181502 0.0090435845   -3.1091066   0.01909861 -0.014599083 -0.033836279 0.0022497634 
10370000 0.0084041892   -3.1166842  0.008375008   -3.1083092  0.014360865 -0.036007077 0.0050764595 -0.010823106 
10380000 0.0099268639    -3.117087 0.0098923956   -3.1071946  0.045466826  0.047023489 0.0076398662  0.046245157 
10390000  0.010043319   -3.1171852  0.010008447   -3.1071768   0.02049599 -0.021783072 0.0064448355 -0.00064354091 
10400000 0.0095037449   -3.1161341 0.0094707458   -3.1066634  0.020911577  -0.03783796 0.0021299098 -0.0084631917 
10410000 0.0099434522   -3.1187809 0.0099089264    -3.108872  0.020668928 -0.016611758 -0.010387801  0.002028585 
10420000   0.00986837   -3.1162292 0.0098341048   -3.1063951  0.034397082  0.014798571 -0.0024287889  0.024597827 
10430000 0.0089158462   -3.1172927 0.0088848884   -3.1084078  0.039300552  0.044065156 0.0091123712  0.041682854 
10440000 0.0089365495   -3.1174016 0.0089055198    -3.108496  0.013424162 -0.047011404  -0.01109438 -0.016793621 
10450000  0.009617744   -3.1173928  0.009584349   -3.1078084  0.024167262 -0.0074685379  0.014139106 0.0083493623 
10460000  0.010310294   -3.1173063  0.010274495   -3.1070318  0.029380748  0.013763845  -0.02130811  0.021572296 
10470000  0.008655835   -3.1168273 0.0086257801   -3.1082015  0.034289359  0.008156909  0.014986819  0.021223134 
10480000  0.009482737   -3.1174228 0.0094498108    -3.107973  0.039690084  0.036134663 -0.019759548  0.037912374 
10490000 0.0099537608   -3.1172292 0.0099191991     -3.10731  0.022049253 -0.023902861 -0.007639216 -0.00092680389 
10500000 0.0090249297   -3.1168723 0.0089935932   -3.1078787  0.017560963 -0.031971198  -0.02648883 -0.0072051176 
Loop time of 1645.53 on 1 procs for 10500000 steps with 288 atoms

Pair  time (%) = 1272.67 (77.3409)
Neigh time (%) = 0 (0)
Comm  time (%) = 19.3654 (1.17685)
Outpt time (%) = 0.335888 (0.0204122)
Other time (%) = 353.16 (21.4618)

Nlocal:    288 ave 288 max 288 min
Histogram: 1 0 0 0 0 0 0 0 0 0
Nghost:    99 ave 99 max 99 min
Histogram: 1 0 0 0 0 0 0 0 0 0
Neighs:    3936 ave 3936 max 3936 min
Histogram: 1 0 0 0 0 0 0 0 0 0

Total # of neighbors = 3936
Ave neighs/atom = 13.6667
Neighbor list builds = 0
Dangerous builds = 0
