
         150 atoms

5 atom types

0.0         14.424978 xlo xhi
0.0         14.424978 ylo yhi
      -22.4480000       33.464000 zlo zhi

Masses

1 1.000000
2 1.000000
3 1.000000
4 1.000000
5 1.000000

Atoms
 
   1  2  0.0000  0.0000  0.0000    0    0    3  0.0000  0.0000  0.0000
   2  2  1.4425  1.4425  2.0400    0    0    2  1.4425  1.4425  2.0400
   3  5  0.0000  0.0000  4.0800    0    0    1  0.0000  0.0000  4.0800
   4  5  1.4425  1.4425  6.1200    0    0    0  1.4425  1.4425  6.1200
   5  3  0.0000  0.0000  8.1600 0 0 0 0.0 0.0 0.0
   6  3  1.4425  1.4425 10.2000 0 0 0 0.0 0.0 0.0
   7  2  0.0000  2.8850  0.0000    0    1    3  0.0000  2.8850  0.0000
   8  2  1.4425  4.3275  2.0400    0    1    2  1.4425  4.3275  2.0400
   9  5  0.0000  2.8850  4.0800    0    1    1  0.0000  2.8850  4.0800
  10  5  1.4425  4.3275  6.1200    0    1    0  1.4425  4.3275  6.1200
  11  3  0.0000  2.8850  8.1600 0 0 0 0.0 0.0 0.0
  12  3  1.4425  4.3275 10.2000 0 0 0 0.0 0.0 0.0
  13  2  0.0000  5.7700  0.0000    0    2    3  0.0000  5.7700  0.0000
  14  2  1.4425  7.2125  2.0400    0    2    2  1.4425  7.2125  2.0400
  15  5  0.0000  5.7700  4.0800    0    2    1  0.0000  5.7700  4.0800
  16  5  1.4425  7.2125  6.1200    0    2    0  1.4425  7.2125  6.1200
  17  3  0.0000  5.7700  8.1600 0 0 0 0.0 0.0 0.0
  18  3  1.4425  7.2125 10.2000 0 0 0 0.0 0.0 0.0
  19  2  0.0000  8.6550  0.0000    0    3    3  0.0000  8.6550  0.0000
  20  2  1.4425 10.0975  2.0400    0    3    2  1.4425 10.0975  2.0400
  21  5  0.0000  8.6550  4.0800    0    3    1  0.0000  8.6550  4.0800
  22  5  1.4425 10.0975  6.1200    0    3    0  1.4425 10.0975  6.1200
  23  3  0.0000  8.6550  8.1600 0 0 0 0.0 0.0 0.0
  24  3  1.4425 10.0975 10.2000 0 0 0 0.0 0.0 0.0
  25  2  0.0000 11.5400  0.0000    0    4    3  0.0000 11.5400  0.0000
  26  2  1.4425 12.9825  2.0400    0    4    2  1.4425 12.9825  2.0400
  27  5  0.0000 11.5400  4.0800    0    4    1  0.0000 11.5400  4.0800
  28  5  1.4425 12.9825  6.1200    0    4    0  1.4425 12.9825  6.1200
  29  3  0.0000 11.5400  8.1600 0 0 0 0.0 0.0 0.0
  30  3  1.4425 12.9825 10.2000 0 0 0 0.0 0.0 0.0
  31  2  2.8850  0.0000  0.0000    1    0    3  2.8850  0.0000  0.0000
  32  2  4.3275  1.4425  2.0400    1    0    2  4.3275  1.4425  2.0400
  33  5  2.8850  0.0000  4.0800    1    0    1  2.8850  0.0000  4.0800
  34  5  4.3275  1.4425  6.1200    1    0    0  4.3275  1.4425  6.1200
  35  3  2.8850  0.0000  8.1600 0 0 0 0.0 0.0 0.0
  36  3  4.3275  1.4425 10.2000 0 0 0 0.0 0.0 0.0
  37  2  2.8850  2.8850  0.0000    1    1    3  2.8850  2.8850  0.0000
  38  2  4.3275  4.3275  2.0400    1    1    2  4.3275  4.3275  2.0400
  39  5  2.8850  2.8850  4.0800    1    1    1  2.8850  2.8850  4.0800
  40  5  4.3275  4.3275  6.1200    1    1    0  4.3275  4.3275  6.1200
  41  3  2.8850  2.8850  8.1600 0 0 0 0.0 0.0 0.0
  42  3  4.3275  4.3275 10.2000 0 0 0 0.0 0.0 0.0
  43  2  2.8850  5.7700  0.0000    1    2    3  2.8850  5.7700  0.0000
  44  2  4.3275  7.2125  2.0400    1    2    2  4.3275  7.2125  2.0400
  45  5  2.8850  5.7700  4.0800    1    2    1  2.8850  5.7700  4.0800
  46  5  4.3275  7.2125  6.1200    1    2    0  4.3275  7.2125  6.1200
  47  3  2.8850  5.7700  8.1600 0 0 0 0.0 0.0 0.0
  48  3  4.3275  7.2125 10.2000 0 0 0 0.0 0.0 0.0
  49  2  2.8850  8.6550  0.0000    1    3    3  2.8850  8.6550  0.0000
  50  2  4.3275 10.0975  2.0400    1    3    2  4.3275 10.0975  2.0400
  51  5  2.8850  8.6550  4.0800    1    3    1  2.8850  8.6550  4.0800
  52  5  4.3275 10.0975  6.1200    1    3    0  4.3275 10.0975  6.1200
  53  3  2.8850  8.6550  8.1600 0 0 0 0.0 0.0 0.0
  54  3  4.3275 10.0975 10.2000 0 0 0 0.0 0.0 0.0
  55  2  2.8850 11.5400  0.0000    1    4    3  2.8850 11.5400  0.0000
  56  2  4.3275 12.9825  2.0400    1    4    2  4.3275 12.9825  2.0400
  57  5  2.8850 11.5400  4.0800    1    4    1  2.8850 11.5400  4.0800
  58  5  4.3275 12.9825  6.1200    1    4    0  4.3275 12.9825  6.1200
  59  3  2.8850 11.5400  8.1600 0 0 0 0.0 0.0 0.0
  60  3  4.3275 12.9825 10.2000 0 0 0 0.0 0.0 0.0
  61  2  5.7700  0.0000  0.0000    2    0    3  5.7700  0.0000  0.0000
  62  2  7.2125  1.4425  2.0400    2    0    2  7.2125  1.4425  2.0400
  63  5  5.7700  0.0000  4.0800    2    0    1  5.7700  0.0000  4.0800
  64  5  7.2125  1.4425  6.1200    2    0    0  7.2125  1.4425  6.1200
  65  3  5.7700  0.0000  8.1600 0 0 0 0.0 0.0 0.0
  66  3  7.2125  1.4425 10.2000 0 0 0 0.0 0.0 0.0
  67  2  5.7700  2.8850  0.0000    2    1    3  5.7700  2.8850  0.0000
  68  2  7.2125  4.3275  2.0400    2    1    2  7.2125  4.3275  2.0400
  69  5  5.7700  2.8850  4.0800    2    1    1  5.7700  2.8850  4.0800
  70  5  7.2125  4.3275  6.1200    2    1    0  7.2125  4.3275  6.1200
  71  3  5.7700  2.8850  8.1600 0 0 0 0.0 0.0 0.0
  72  3  7.2125  4.3275 10.2000 0 0 0 0.0 0.0 0.0
  73  2  5.7700  5.7700  0.0000    2    2    3  5.7700  5.7700  0.0000
  74  2  7.2125  7.2125  2.0400    2    2    2  7.2125  7.2125  2.0400
  75  5  5.7700  5.7700  4.0800    2    2    1  5.7700  5.7700  4.0800
  76  5  7.2125  7.2125  6.1200    2    2    0  7.2125  7.2125  6.1200
  77  3  5.7700  5.7700  8.1600 0 0 0 0.0 0.0 0.0
  78  3  7.2125  7.2125 10.2000 0 0 0 0.0 0.0 0.0
  79  2  5.7700  8.6550  0.0000    2    3    3  5.7700  8.6550  0.0000
  80  2  7.2125 10.0975  2.0400    2    3    2  7.2125 10.0975  2.0400
  81  5  5.7700  8.6550  4.0800    2    3    1  5.7700  8.6550  4.0800
  82  5  7.2125 10.0975  6.1200    2    3    0  7.2125 10.0975  6.1200
  83  3  5.7700  8.6550  8.1600 0 0 0 0.0 0.0 0.0
  84  3  7.2125 10.0975 10.2000 0 0 0 0.0 0.0 0.0
  85  2  5.7700 11.5400  0.0000    2    4    3  5.7700 11.5400  0.0000
  86  2  7.2125 12.9825  2.0400    2    4    2  7.2125 12.9825  2.0400
  87  5  5.7700 11.5400  4.0800    2    4    1  5.7700 11.5400  4.0800
  88  5  7.2125 12.9825  6.1200    2    4    0  7.2125 12.9825  6.1200
  89  3  5.7700 11.5400  8.1600 0 0 0 0.0 0.0 0.0
  90  3  7.2125 12.9825 10.2000 0 0 0 0.0 0.0 0.0
  91  2  8.6550  0.0000  0.0000    3    0    3  8.6550  0.0000  0.0000
  92  2 10.0975  1.4425  2.0400    3    0    2 10.0975  1.4425  2.0400
  93  5  8.6550  0.0000  4.0800    3    0    1  8.6550  0.0000  4.0800
  94  5 10.0975  1.4425  6.1200    3    0    0 10.0975  1.4425  6.1200
  95  3  8.6550  0.0000  8.1600 0 0 0 0.0 0.0 0.0
  96  3 10.0975  1.4425 10.2000 0 0 0 0.0 0.0 0.0
  97  2  8.6550  2.8850  0.0000    3    1    3  8.6550  2.8850  0.0000
  98  2 10.0975  4.3275  2.0400    3    1    2 10.0975  4.3275  2.0400
  99  5  8.6550  2.8850  4.0800    3    1    1  8.6550  2.8850  4.0800
 100  5 10.0975  4.3275  6.1200    3    1    0 10.0975  4.3275  6.1200
 101  3  8.6550  2.8850  8.1600 0 0 0 0.0 0.0 0.0
 102  3 10.0975  4.3275 10.2000 0 0 0 0.0 0.0 0.0
 103  2  8.6550  5.7700  0.0000    3    2    3  8.6550  5.7700  0.0000
 104  2 10.0975  7.2125  2.0400    3    2    2 10.0975  7.2125  2.0400
 105  5  8.6550  5.7700  4.0800    3    2    1  8.6550  5.7700  4.0800
 106  5 10.0975  7.2125  6.1200    3    2    0 10.0975  7.2125  6.1200
 107  3  8.6550  5.7700  8.1600 0 0 0 0.0 0.0 0.0
 108  3 10.0975  7.2125 10.2000 0 0 0 0.0 0.0 0.0
 109  2  8.6550  8.6550  0.0000    3    3    3  8.6550  8.6550  0.0000
 110  2 10.0975 10.0975  2.0400    3    3    2 10.0975 10.0975  2.0400
 111  5  8.6550  8.6550  4.0800    3    3    1  8.6550  8.6550  4.0800
 112  5 10.0975 10.0975  6.1200    3    3    0 10.0975 10.0975  6.1200
 113  3  8.6550  8.6550  8.1600 0 0 0 0.0 0.0 0.0
 114  3 10.0975 10.0975 10.2000 0 0 0 0.0 0.0 0.0
 115  2  8.6550 11.5400  0.0000    3    4    3  8.6550 11.5400  0.0000
 116  2 10.0975 12.9825  2.0400    3    4    2 10.0975 12.9825  2.0400
 117  5  8.6550 11.5400  4.0800    3    4    1  8.6550 11.5400  4.0800
 118  5 10.0975 12.9825  6.1200    3    4    0 10.0975 12.9825  6.1200
 119  3  8.6550 11.5400  8.1600 0 0 0 0.0 0.0 0.0
 120  3 10.0975 12.9825 10.2000 0 0 0 0.0 0.0 0.0
 121  2 11.5400  0.0000  0.0000    4    0    3 11.5400  0.0000  0.0000
 122  2 12.9825  1.4425  2.0400    4    0    2 12.9825  1.4425  2.0400
 123  5 11.5400  0.0000  4.0800    4    0    1 11.5400  0.0000  4.0800
 124  5 12.9825  1.4425  6.1200    4    0    0 12.9825  1.4425  6.1200
 125  3 11.5400  0.0000  8.1600 0 0 0 0.0 0.0 0.0
 126  3 12.9825  1.4425 10.2000 0 0 0 0.0 0.0 0.0
 127  2 11.5400  2.8850  0.0000    4    1    3 11.5400  2.8850  0.0000
 128  2 12.9825  4.3275  2.0400    4    1    2 12.9825  4.3275  2.0400
 129  5 11.5400  2.8850  4.0800    4    1    1 11.5400  2.8850  4.0800
 130  5 12.9825  4.3275  6.1200    4    1    0 12.9825  4.3275  6.1200
 131  3 11.5400  2.8850  8.1600 0 0 0 0.0 0.0 0.0
 132  3 12.9825  4.3275 10.2000 0 0 0 0.0 0.0 0.0
 133  2 11.5400  5.7700  0.0000    4    2    3 11.5400  5.7700  0.0000
 134  2 12.9825  7.2125  2.0400    4    2    2 12.9825  7.2125  2.0400
 135  5 11.5400  5.7700  4.0800    4    2    1 11.5400  5.7700  4.0800
 136  5 12.9825  7.2125  6.1200    4    2    0 12.9825  7.2125  6.1200
 137  3 11.5400  5.7700  8.1600 0 0 0 0.0 0.0 0.0
 138  3 12.9825  7.2125 10.2000 0 0 0 0.0 0.0 0.0
 139  2 11.5400  8.6550  0.0000    4    3    3 11.5400  8.6550  0.0000
 140  2 12.9825 10.0975  2.0400    4    3    2 12.9825 10.0975  2.0400
 141  5 11.5400  8.6550  4.0800    4    3    1 11.5400  8.6550  4.0800
 142  5 12.9825 10.0975  6.1200    4    3    0 12.9825 10.0975  6.1200
 143  3 11.5400  8.6550  8.1600 0 0 0 0.0 0.0 0.0
 144  3 12.9825 10.0975 10.2000 0 0 0 0.0 0.0 0.0
 145  2 11.5400 11.5400  0.0000    4    4    3 11.5400 11.5400  0.0000
 146  2 12.9825 12.9825  2.0400    4    4    2 12.9825 12.9825  2.0400
 147  5 11.5400 11.5400  4.0800    4    4    1 11.5400 11.5400  4.0800
 148  5 12.9825 12.9825  6.1200    4    4    0 12.9825 12.9825  6.1200
 149  3 11.5400 11.5400  8.1600 0 0 0 0.0 0.0 0.0
 150  3 12.9825 12.9825 10.2000 0 0 0 0.0 0.0 0.0
