
         500 atoms

4 atom types

0.0         14.424978 xlo xhi
0.0         14.424978 ylo yhi
      -8.1600001       69.880001 zlo zhi

Masses

1 1.000000
2 1.000000
3 1.000000
4 1.000000

Atoms
 
   1  2  0.0000  0.0000  0.0000
   2  2  1.4425  1.4425  2.0400
   3  1  0.0000  0.0000  4.0800
   4  1  1.4425  1.4425  6.1200
   5  1  0.0000  0.0000  8.1600
   6  1  1.4425  1.4425 10.2000
   7  1  0.0000  0.0000 12.2400
   8  1  1.4425  1.4425 14.2800
   9  1  0.0000  0.0000 16.3200
  10  1  1.4425  1.4425 18.3600
  11  1  0.0000  0.0000 20.4000
  12  1  1.4425  1.4425 22.4400
  13  1  0.0000  0.0000 24.4800
  14  1  1.4425  1.4425 26.5200
  15  1  0.0000  0.0000 28.5600
  16  1  1.4425  1.4425 30.6000
  17  4  0.0000  0.0000 32.6400
  18  4  1.4425  1.4425 34.6800
  19  3  0.0000  0.0000 36.7200
  20  3  1.4425  1.4425 38.7600
  21  2  0.0000  2.8850  0.0000
  22  2  1.4425  4.3275  2.0400
  23  1  0.0000  2.8850  4.0800
  24  1  1.4425  4.3275  6.1200
  25  1  0.0000  2.8850  8.1600
  26  1  1.4425  4.3275 10.2000
  27  1  0.0000  2.8850 12.2400
  28  1  1.4425  4.3275 14.2800
  29  1  0.0000  2.8850 16.3200
  30  1  1.4425  4.3275 18.3600
  31  1  0.0000  2.8850 20.4000
  32  1  1.4425  4.3275 22.4400
  33  1  0.0000  2.8850 24.4800
  34  1  1.4425  4.3275 26.5200
  35  1  0.0000  2.8850 28.5600
  36  1  1.4425  4.3275 30.6000
  37  4  0.0000  2.8850 32.6400
  38  4  1.4425  4.3275 34.6800
  39  3  0.0000  2.8850 36.7200
  40  3  1.4425  4.3275 38.7600
  41  2  0.0000  5.7700  0.0000
  42  2  1.4425  7.2125  2.0400
  43  1  0.0000  5.7700  4.0800
  44  1  1.4425  7.2125  6.1200
  45  1  0.0000  5.7700  8.1600
  46  1  1.4425  7.2125 10.2000
  47  1  0.0000  5.7700 12.2400
  48  1  1.4425  7.2125 14.2800
  49  1  0.0000  5.7700 16.3200
  50  1  1.4425  7.2125 18.3600
  51  1  0.0000  5.7700 20.4000
  52  1  1.4425  7.2125 22.4400
  53  1  0.0000  5.7700 24.4800
  54  1  1.4425  7.2125 26.5200
  55  1  0.0000  5.7700 28.5600
  56  1  1.4425  7.2125 30.6000
  57  4  0.0000  5.7700 32.6400
  58  4  1.4425  7.2125 34.6800
  59  3  0.0000  5.7700 36.7200
  60  3  1.4425  7.2125 38.7600
  61  2  0.0000  8.6550  0.0000
  62  2  1.4425 10.0975  2.0400
  63  1  0.0000  8.6550  4.0800
  64  1  1.4425 10.0975  6.1200
  65  1  0.0000  8.6550  8.1600
  66  1  1.4425 10.0975 10.2000
  67  1  0.0000  8.6550 12.2400
  68  1  1.4425 10.0975 14.2800
  69  1  0.0000  8.6550 16.3200
  70  1  1.4425 10.0975 18.3600
  71  1  0.0000  8.6550 20.4000
  72  1  1.4425 10.0975 22.4400
  73  1  0.0000  8.6550 24.4800
  74  1  1.4425 10.0975 26.5200
  75  1  0.0000  8.6550 28.5600
  76  1  1.4425 10.0975 30.6000
  77  4  0.0000  8.6550 32.6400
  78  4  1.4425 10.0975 34.6800
  79  3  0.0000  8.6550 36.7200
  80  3  1.4425 10.0975 38.7600
  81  2  0.0000 11.5400  0.0000
  82  2  1.4425 12.9825  2.0400
  83  1  0.0000 11.5400  4.0800
  84  1  1.4425 12.9825  6.1200
  85  1  0.0000 11.5400  8.1600
  86  1  1.4425 12.9825 10.2000
  87  1  0.0000 11.5400 12.2400
  88  1  1.4425 12.9825 14.2800
  89  1  0.0000 11.5400 16.3200
  90  1  1.4425 12.9825 18.3600
  91  1  0.0000 11.5400 20.4000
  92  1  1.4425 12.9825 22.4400
  93  1  0.0000 11.5400 24.4800
  94  1  1.4425 12.9825 26.5200
  95  1  0.0000 11.5400 28.5600
  96  1  1.4425 12.9825 30.6000
  97  4  0.0000 11.5400 32.6400
  98  4  1.4425 12.9825 34.6800
  99  3  0.0000 11.5400 36.7200
 100  3  1.4425 12.9825 38.7600
 101  2  2.8850  0.0000  0.0000
 102  2  4.3275  1.4425  2.0400
 103  1  2.8850  0.0000  4.0800
 104  1  4.3275  1.4425  6.1200
 105  1  2.8850  0.0000  8.1600
 106  1  4.3275  1.4425 10.2000
 107  1  2.8850  0.0000 12.2400
 108  1  4.3275  1.4425 14.2800
 109  1  2.8850  0.0000 16.3200
 110  1  4.3275  1.4425 18.3600
 111  1  2.8850  0.0000 20.4000
 112  1  4.3275  1.4425 22.4400
 113  1  2.8850  0.0000 24.4800
 114  1  4.3275  1.4425 26.5200
 115  1  2.8850  0.0000 28.5600
 116  1  4.3275  1.4425 30.6000
 117  4  2.8850  0.0000 32.6400
 118  4  4.3275  1.4425 34.6800
 119  3  2.8850  0.0000 36.7200
 120  3  4.3275  1.4425 38.7600
 121  2  2.8850  2.8850  0.0000
 122  2  4.3275  4.3275  2.0400
 123  1  2.8850  2.8850  4.0800
 124  1  4.3275  4.3275  6.1200
 125  1  2.8850  2.8850  8.1600
 126  1  4.3275  4.3275 10.2000
 127  1  2.8850  2.8850 12.2400
 128  1  4.3275  4.3275 14.2800
 129  1  2.8850  2.8850 16.3200
 130  1  4.3275  4.3275 18.3600
 131  1  2.8850  2.8850 20.4000
 132  1  4.3275  4.3275 22.4400
 133  1  2.8850  2.8850 24.4800
 134  1  4.3275  4.3275 26.5200
 135  1  2.8850  2.8850 28.5600
 136  1  4.3275  4.3275 30.6000
 137  4  2.8850  2.8850 32.6400
 138  4  4.3275  4.3275 34.6800
 139  3  2.8850  2.8850 36.7200
 140  3  4.3275  4.3275 38.7600
 141  2  2.8850  5.7700  0.0000
 142  2  4.3275  7.2125  2.0400
 143  1  2.8850  5.7700  4.0800
 144  1  4.3275  7.2125  6.1200
 145  1  2.8850  5.7700  8.1600
 146  1  4.3275  7.2125 10.2000
 147  1  2.8850  5.7700 12.2400
 148  1  4.3275  7.2125 14.2800
 149  1  2.8850  5.7700 16.3200
 150  1  4.3275  7.2125 18.3600
 151  1  2.8850  5.7700 20.4000
 152  1  4.3275  7.2125 22.4400
 153  1  2.8850  5.7700 24.4800
 154  1  4.3275  7.2125 26.5200
 155  1  2.8850  5.7700 28.5600
 156  1  4.3275  7.2125 30.6000
 157  4  2.8850  5.7700 32.6400
 158  4  4.3275  7.2125 34.6800
 159  3  2.8850  5.7700 36.7200
 160  3  4.3275  7.2125 38.7600
 161  2  2.8850  8.6550  0.0000
 162  2  4.3275 10.0975  2.0400
 163  1  2.8850  8.6550  4.0800
 164  1  4.3275 10.0975  6.1200
 165  1  2.8850  8.6550  8.1600
 166  1  4.3275 10.0975 10.2000
 167  1  2.8850  8.6550 12.2400
 168  1  4.3275 10.0975 14.2800
 169  1  2.8850  8.6550 16.3200
 170  1  4.3275 10.0975 18.3600
 171  1  2.8850  8.6550 20.4000
 172  1  4.3275 10.0975 22.4400
 173  1  2.8850  8.6550 24.4800
 174  1  4.3275 10.0975 26.5200
 175  1  2.8850  8.6550 28.5600
 176  1  4.3275 10.0975 30.6000
 177  4  2.8850  8.6550 32.6400
 178  4  4.3275 10.0975 34.6800
 179  3  2.8850  8.6550 36.7200
 180  3  4.3275 10.0975 38.7600
 181  2  2.8850 11.5400  0.0000
 182  2  4.3275 12.9825  2.0400
 183  1  2.8850 11.5400  4.0800
 184  1  4.3275 12.9825  6.1200
 185  1  2.8850 11.5400  8.1600
 186  1  4.3275 12.9825 10.2000
 187  1  2.8850 11.5400 12.2400
 188  1  4.3275 12.9825 14.2800
 189  1  2.8850 11.5400 16.3200
 190  1  4.3275 12.9825 18.3600
 191  1  2.8850 11.5400 20.4000
 192  1  4.3275 12.9825 22.4400
 193  1  2.8850 11.5400 24.4800
 194  1  4.3275 12.9825 26.5200
 195  1  2.8850 11.5400 28.5600
 196  1  4.3275 12.9825 30.6000
 197  4  2.8850 11.5400 32.6400
 198  4  4.3275 12.9825 34.6800
 199  3  2.8850 11.5400 36.7200
 200  3  4.3275 12.9825 38.7600
 201  2  5.7700  0.0000  0.0000
 202  2  7.2125  1.4425  2.0400
 203  1  5.7700  0.0000  4.0800
 204  1  7.2125  1.4425  6.1200
 205  1  5.7700  0.0000  8.1600
 206  1  7.2125  1.4425 10.2000
 207  1  5.7700  0.0000 12.2400
 208  1  7.2125  1.4425 14.2800
 209  1  5.7700  0.0000 16.3200
 210  1  7.2125  1.4425 18.3600
 211  1  5.7700  0.0000 20.4000
 212  1  7.2125  1.4425 22.4400
 213  1  5.7700  0.0000 24.4800
 214  1  7.2125  1.4425 26.5200
 215  1  5.7700  0.0000 28.5600
 216  1  7.2125  1.4425 30.6000
 217  4  5.7700  0.0000 32.6400
 218  4  7.2125  1.4425 34.6800
 219  3  5.7700  0.0000 36.7200
 220  3  7.2125  1.4425 38.7600
 221  2  5.7700  2.8850  0.0000
 222  2  7.2125  4.3275  2.0400
 223  1  5.7700  2.8850  4.0800
 224  1  7.2125  4.3275  6.1200
 225  1  5.7700  2.8850  8.1600
 226  1  7.2125  4.3275 10.2000
 227  1  5.7700  2.8850 12.2400
 228  1  7.2125  4.3275 14.2800
 229  1  5.7700  2.8850 16.3200
 230  1  7.2125  4.3275 18.3600
 231  1  5.7700  2.8850 20.4000
 232  1  7.2125  4.3275 22.4400
 233  1  5.7700  2.8850 24.4800
 234  1  7.2125  4.3275 26.5200
 235  1  5.7700  2.8850 28.5600
 236  1  7.2125  4.3275 30.6000
 237  4  5.7700  2.8850 32.6400
 238  4  7.2125  4.3275 34.6800
 239  3  5.7700  2.8850 36.7200
 240  3  7.2125  4.3275 38.7600
 241  2  5.7700  5.7700  0.0000
 242  2  7.2125  7.2125  2.0400
 243  1  5.7700  5.7700  4.0800
 244  1  7.2125  7.2125  6.1200
 245  1  5.7700  5.7700  8.1600
 246  1  7.2125  7.2125 10.2000
 247  1  5.7700  5.7700 12.2400
 248  1  7.2125  7.2125 14.2800
 249  1  5.7700  5.7700 16.3200
 250  1  7.2125  7.2125 18.3600
 251  1  5.7700  5.7700 20.4000
 252  1  7.2125  7.2125 22.4400
 253  1  5.7700  5.7700 24.4800
 254  1  7.2125  7.2125 26.5200
 255  1  5.7700  5.7700 28.5600
 256  1  7.2125  7.2125 30.6000
 257  4  5.7700  5.7700 32.6400
 258  4  7.2125  7.2125 34.6800
 259  3  5.7700  5.7700 36.7200
 260  3  7.2125  7.2125 38.7600
 261  2  5.7700  8.6550  0.0000
 262  2  7.2125 10.0975  2.0400
 263  1  5.7700  8.6550  4.0800
 264  1  7.2125 10.0975  6.1200
 265  1  5.7700  8.6550  8.1600
 266  1  7.2125 10.0975 10.2000
 267  1  5.7700  8.6550 12.2400
 268  1  7.2125 10.0975 14.2800
 269  1  5.7700  8.6550 16.3200
 270  1  7.2125 10.0975 18.3600
 271  1  5.7700  8.6550 20.4000
 272  1  7.2125 10.0975 22.4400
 273  1  5.7700  8.6550 24.4800
 274  1  7.2125 10.0975 26.5200
 275  1  5.7700  8.6550 28.5600
 276  1  7.2125 10.0975 30.6000
 277  4  5.7700  8.6550 32.6400
 278  4  7.2125 10.0975 34.6800
 279  3  5.7700  8.6550 36.7200
 280  3  7.2125 10.0975 38.7600
 281  2  5.7700 11.5400  0.0000
 282  2  7.2125 12.9825  2.0400
 283  1  5.7700 11.5400  4.0800
 284  1  7.2125 12.9825  6.1200
 285  1  5.7700 11.5400  8.1600
 286  1  7.2125 12.9825 10.2000
 287  1  5.7700 11.5400 12.2400
 288  1  7.2125 12.9825 14.2800
 289  1  5.7700 11.5400 16.3200
 290  1  7.2125 12.9825 18.3600
 291  1  5.7700 11.5400 20.4000
 292  1  7.2125 12.9825 22.4400
 293  1  5.7700 11.5400 24.4800
 294  1  7.2125 12.9825 26.5200
 295  1  5.7700 11.5400 28.5600
 296  1  7.2125 12.9825 30.6000
 297  4  5.7700 11.5400 32.6400
 298  4  7.2125 12.9825 34.6800
 299  3  5.7700 11.5400 36.7200
 300  3  7.2125 12.9825 38.7600
 301  2  8.6550  0.0000  0.0000
 302  2 10.0975  1.4425  2.0400
 303  1  8.6550  0.0000  4.0800
 304  1 10.0975  1.4425  6.1200
 305  1  8.6550  0.0000  8.1600
 306  1 10.0975  1.4425 10.2000
 307  1  8.6550  0.0000 12.2400
 308  1 10.0975  1.4425 14.2800
 309  1  8.6550  0.0000 16.3200
 310  1 10.0975  1.4425 18.3600
 311  1  8.6550  0.0000 20.4000
 312  1 10.0975  1.4425 22.4400
 313  1  8.6550  0.0000 24.4800
 314  1 10.0975  1.4425 26.5200
 315  1  8.6550  0.0000 28.5600
 316  1 10.0975  1.4425 30.6000
 317  4  8.6550  0.0000 32.6400
 318  4 10.0975  1.4425 34.6800
 319  3  8.6550  0.0000 36.7200
 320  3 10.0975  1.4425 38.7600
 321  2  8.6550  2.8850  0.0000
 322  2 10.0975  4.3275  2.0400
 323  1  8.6550  2.8850  4.0800
 324  1 10.0975  4.3275  6.1200
 325  1  8.6550  2.8850  8.1600
 326  1 10.0975  4.3275 10.2000
 327  1  8.6550  2.8850 12.2400
 328  1 10.0975  4.3275 14.2800
 329  1  8.6550  2.8850 16.3200
 330  1 10.0975  4.3275 18.3600
 331  1  8.6550  2.8850 20.4000
 332  1 10.0975  4.3275 22.4400
 333  1  8.6550  2.8850 24.4800
 334  1 10.0975  4.3275 26.5200
 335  1  8.6550  2.8850 28.5600
 336  1 10.0975  4.3275 30.6000
 337  4  8.6550  2.8850 32.6400
 338  4 10.0975  4.3275 34.6800
 339  3  8.6550  2.8850 36.7200
 340  3 10.0975  4.3275 38.7600
 341  2  8.6550  5.7700  0.0000
 342  2 10.0975  7.2125  2.0400
 343  1  8.6550  5.7700  4.0800
 344  1 10.0975  7.2125  6.1200
 345  1  8.6550  5.7700  8.1600
 346  1 10.0975  7.2125 10.2000
 347  1  8.6550  5.7700 12.2400
 348  1 10.0975  7.2125 14.2800
 349  1  8.6550  5.7700 16.3200
 350  1 10.0975  7.2125 18.3600
 351  1  8.6550  5.7700 20.4000
 352  1 10.0975  7.2125 22.4400
 353  1  8.6550  5.7700 24.4800
 354  1 10.0975  7.2125 26.5200
 355  1  8.6550  5.7700 28.5600
 356  1 10.0975  7.2125 30.6000
 357  4  8.6550  5.7700 32.6400
 358  4 10.0975  7.2125 34.6800
 359  3  8.6550  5.7700 36.7200
 360  3 10.0975  7.2125 38.7600
 361  2  8.6550  8.6550  0.0000
 362  2 10.0975 10.0975  2.0400
 363  1  8.6550  8.6550  4.0800
 364  1 10.0975 10.0975  6.1200
 365  1  8.6550  8.6550  8.1600
 366  1 10.0975 10.0975 10.2000
 367  1  8.6550  8.6550 12.2400
 368  1 10.0975 10.0975 14.2800
 369  1  8.6550  8.6550 16.3200
 370  1 10.0975 10.0975 18.3600
 371  1  8.6550  8.6550 20.4000
 372  1 10.0975 10.0975 22.4400
 373  1  8.6550  8.6550 24.4800
 374  1 10.0975 10.0975 26.5200
 375  1  8.6550  8.6550 28.5600
 376  1 10.0975 10.0975 30.6000
 377  4  8.6550  8.6550 32.6400
 378  4 10.0975 10.0975 34.6800
 379  3  8.6550  8.6550 36.7200
 380  3 10.0975 10.0975 38.7600
 381  2  8.6550 11.5400  0.0000
 382  2 10.0975 12.9825  2.0400
 383  1  8.6550 11.5400  4.0800
 384  1 10.0975 12.9825  6.1200
 385  1  8.6550 11.5400  8.1600
 386  1 10.0975 12.9825 10.2000
 387  1  8.6550 11.5400 12.2400
 388  1 10.0975 12.9825 14.2800
 389  1  8.6550 11.5400 16.3200
 390  1 10.0975 12.9825 18.3600
 391  1  8.6550 11.5400 20.4000
 392  1 10.0975 12.9825 22.4400
 393  1  8.6550 11.5400 24.4800
 394  1 10.0975 12.9825 26.5200
 395  1  8.6550 11.5400 28.5600
 396  1 10.0975 12.9825 30.6000
 397  4  8.6550 11.5400 32.6400
 398  4 10.0975 12.9825 34.6800
 399  3  8.6550 11.5400 36.7200
 400  3 10.0975 12.9825 38.7600
 401  2 11.5400  0.0000  0.0000
 402  2 12.9825  1.4425  2.0400
 403  1 11.5400  0.0000  4.0800
 404  1 12.9825  1.4425  6.1200
 405  1 11.5400  0.0000  8.1600
 406  1 12.9825  1.4425 10.2000
 407  1 11.5400  0.0000 12.2400
 408  1 12.9825  1.4425 14.2800
 409  1 11.5400  0.0000 16.3200
 410  1 12.9825  1.4425 18.3600
 411  1 11.5400  0.0000 20.4000
 412  1 12.9825  1.4425 22.4400
 413  1 11.5400  0.0000 24.4800
 414  1 12.9825  1.4425 26.5200
 415  1 11.5400  0.0000 28.5600
 416  1 12.9825  1.4425 30.6000
 417  4 11.5400  0.0000 32.6400
 418  4 12.9825  1.4425 34.6800
 419  3 11.5400  0.0000 36.7200
 420  3 12.9825  1.4425 38.7600
 421  2 11.5400  2.8850  0.0000
 422  2 12.9825  4.3275  2.0400
 423  1 11.5400  2.8850  4.0800
 424  1 12.9825  4.3275  6.1200
 425  1 11.5400  2.8850  8.1600
 426  1 12.9825  4.3275 10.2000
 427  1 11.5400  2.8850 12.2400
 428  1 12.9825  4.3275 14.2800
 429  1 11.5400  2.8850 16.3200
 430  1 12.9825  4.3275 18.3600
 431  1 11.5400  2.8850 20.4000
 432  1 12.9825  4.3275 22.4400
 433  1 11.5400  2.8850 24.4800
 434  1 12.9825  4.3275 26.5200
 435  1 11.5400  2.8850 28.5600
 436  1 12.9825  4.3275 30.6000
 437  4 11.5400  2.8850 32.6400
 438  4 12.9825  4.3275 34.6800
 439  3 11.5400  2.8850 36.7200
 440  3 12.9825  4.3275 38.7600
 441  2 11.5400  5.7700  0.0000
 442  2 12.9825  7.2125  2.0400
 443  1 11.5400  5.7700  4.0800
 444  1 12.9825  7.2125  6.1200
 445  1 11.5400  5.7700  8.1600
 446  1 12.9825  7.2125 10.2000
 447  1 11.5400  5.7700 12.2400
 448  1 12.9825  7.2125 14.2800
 449  1 11.5400  5.7700 16.3200
 450  1 12.9825  7.2125 18.3600
 451  1 11.5400  5.7700 20.4000
 452  1 12.9825  7.2125 22.4400
 453  1 11.5400  5.7700 24.4800
 454  1 12.9825  7.2125 26.5200
 455  1 11.5400  5.7700 28.5600
 456  1 12.9825  7.2125 30.6000
 457  4 11.5400  5.7700 32.6400
 458  4 12.9825  7.2125 34.6800
 459  3 11.5400  5.7700 36.7200
 460  3 12.9825  7.2125 38.7600
 461  2 11.5400  8.6550  0.0000
 462  2 12.9825 10.0975  2.0400
 463  1 11.5400  8.6550  4.0800
 464  1 12.9825 10.0975  6.1200
 465  1 11.5400  8.6550  8.1600
 466  1 12.9825 10.0975 10.2000
 467  1 11.5400  8.6550 12.2400
 468  1 12.9825 10.0975 14.2800
 469  1 11.5400  8.6550 16.3200
 470  1 12.9825 10.0975 18.3600
 471  1 11.5400  8.6550 20.4000
 472  1 12.9825 10.0975 22.4400
 473  1 11.5400  8.6550 24.4800
 474  1 12.9825 10.0975 26.5200
 475  1 11.5400  8.6550 28.5600
 476  1 12.9825 10.0975 30.6000
 477  4 11.5400  8.6550 32.6400
 478  4 12.9825 10.0975 34.6800
 479  3 11.5400  8.6550 36.7200
 480  3 12.9825 10.0975 38.7600
 481  2 11.5400 11.5400  0.0000
 482  2 12.9825 12.9825  2.0400
 483  1 11.5400 11.5400  4.0800
 484  1 12.9825 12.9825  6.1200
 485  1 11.5400 11.5400  8.1600
 486  1 12.9825 12.9825 10.2000
 487  1 11.5400 11.5400 12.2400
 488  1 12.9825 12.9825 14.2800
 489  1 11.5400 11.5400 16.3200
 490  1 12.9825 12.9825 18.3600
 491  1 11.5400 11.5400 20.4000
 492  1 12.9825 12.9825 22.4400
 493  1 11.5400 11.5400 24.4800
 494  1 12.9825 12.9825 26.5200
 495  1 11.5400 11.5400 28.5600
 496  1 12.9825 12.9825 30.6000
 497  4 11.5400 11.5400 32.6400
 498  4 12.9825 12.9825 34.6800
 499  3 11.5400 11.5400 36.7200
 500  3 12.9825 12.9825 38.7600
