
         250 atoms

5 atom types

0.0         14.424978 xlo xhi
0.0         14.424978 ylo yhi
      -4.0800001       22.440000 zlo zhi

Masses

1 1.000000
2 1.000000
3 1.000000
4 1.000000
5 1.000000

Atoms
 
   1  2  0.0000  0.0000  0.0000    0    0    0  0.0000  0.0000  0.0000
   2  2  1.4425  1.4425  2.0400    0    0    1  1.4425  1.4425  2.0400
   3  5  0.0000  0.0000  4.0800    0    0    2  0.0000  0.0000  4.0800
   4  5  1.4425  1.4425  6.1200    0    0    3  1.4425  1.4425  6.1200
   5  1  0.0000  0.0000  8.1600 0 0 0 0.0 0.0 0.0
   6  1  1.4425  1.4425 10.2000 0 0 0 0.0 0.0 0.0
   7  1  0.0000  0.0000 12.2400 0 0 0 0.0 0.0 0.0
   8  4  1.4425  1.4425 14.2800 0 0 0 0.0 0.0 0.0
   9  3  0.0000  0.0000 16.3200 0 0 0 0.0 0.0 0.0
  10  3  1.4425  1.4425 18.3600 0 0 0 0.0 0.0 0.0
  11  2  0.0000  2.8850  0.0000    0    1    0  0.0000  2.8850  0.0000
  12  2  1.4425  4.3275  2.0400    0    1    1  1.4425  4.3275  2.0400
  13  5  0.0000  2.8850  4.0800    0    1    2  0.0000  2.8850  4.0800
  14  5  1.4425  4.3275  6.1200    0    1    3  1.4425  4.3275  6.1200
  15  1  0.0000  2.8850  8.1600 0 0 0 0.0 0.0 0.0
  16  1  1.4425  4.3275 10.2000 0 0 0 0.0 0.0 0.0
  17  1  0.0000  2.8850 12.2400 0 0 0 0.0 0.0 0.0
  18  4  1.4425  4.3275 14.2800 0 0 0 0.0 0.0 0.0
  19  3  0.0000  2.8850 16.3200 0 0 0 0.0 0.0 0.0
  20  3  1.4425  4.3275 18.3600 0 0 0 0.0 0.0 0.0
  21  2  0.0000  5.7700  0.0000    0    2    0  0.0000  5.7700  0.0000
  22  2  1.4425  7.2125  2.0400    0    2    1  1.4425  7.2125  2.0400
  23  5  0.0000  5.7700  4.0800    0    2    2  0.0000  5.7700  4.0800
  24  5  1.4425  7.2125  6.1200    0    2    3  1.4425  7.2125  6.1200
  25  1  0.0000  5.7700  8.1600 0 0 0 0.0 0.0 0.0
  26  1  1.4425  7.2125 10.2000 0 0 0 0.0 0.0 0.0
  27  1  0.0000  5.7700 12.2400 0 0 0 0.0 0.0 0.0
  28  4  1.4425  7.2125 14.2800 0 0 0 0.0 0.0 0.0
  29  3  0.0000  5.7700 16.3200 0 0 0 0.0 0.0 0.0
  30  3  1.4425  7.2125 18.3600 0 0 0 0.0 0.0 0.0
  31  2  0.0000  8.6550  0.0000    0    3    0  0.0000  8.6550  0.0000
  32  2  1.4425 10.0975  2.0400    0    3    1  1.4425 10.0975  2.0400
  33  5  0.0000  8.6550  4.0800    0    3    2  0.0000  8.6550  4.0800
  34  5  1.4425 10.0975  6.1200    0    3    3  1.4425 10.0975  6.1200
  35  1  0.0000  8.6550  8.1600 0 0 0 0.0 0.0 0.0
  36  1  1.4425 10.0975 10.2000 0 0 0 0.0 0.0 0.0
  37  1  0.0000  8.6550 12.2400 0 0 0 0.0 0.0 0.0
  38  4  1.4425 10.0975 14.2800 0 0 0 0.0 0.0 0.0
  39  3  0.0000  8.6550 16.3200 0 0 0 0.0 0.0 0.0
  40  3  1.4425 10.0975 18.3600 0 0 0 0.0 0.0 0.0
  41  2  0.0000 11.5400  0.0000    0    4    0  0.0000 11.5400  0.0000
  42  2  1.4425 12.9825  2.0400    0    4    1  1.4425 12.9825  2.0400
  43  5  0.0000 11.5400  4.0800    0    4    2  0.0000 11.5400  4.0800
  44  5  1.4425 12.9825  6.1200    0    4    3  1.4425 12.9825  6.1200
  45  1  0.0000 11.5400  8.1600 0 0 0 0.0 0.0 0.0
  46  1  1.4425 12.9825 10.2000 0 0 0 0.0 0.0 0.0
  47  1  0.0000 11.5400 12.2400 0 0 0 0.0 0.0 0.0
  48  4  1.4425 12.9825 14.2800 0 0 0 0.0 0.0 0.0
  49  3  0.0000 11.5400 16.3200 0 0 0 0.0 0.0 0.0
  50  3  1.4425 12.9825 18.3600 0 0 0 0.0 0.0 0.0
  51  2  2.8850  0.0000  0.0000    1    0    0  2.8850  0.0000  0.0000
  52  2  4.3275  1.4425  2.0400    1    0    1  4.3275  1.4425  2.0400
  53  5  2.8850  0.0000  4.0800    1    0    2  2.8850  0.0000  4.0800
  54  5  4.3275  1.4425  6.1200    1    0    3  4.3275  1.4425  6.1200
  55  1  2.8850  0.0000  8.1600 0 0 0 0.0 0.0 0.0
  56  1  4.3275  1.4425 10.2000 0 0 0 0.0 0.0 0.0
  57  1  2.8850  0.0000 12.2400 0 0 0 0.0 0.0 0.0
  58  4  4.3275  1.4425 14.2800 0 0 0 0.0 0.0 0.0
  59  3  2.8850  0.0000 16.3200 0 0 0 0.0 0.0 0.0
  60  3  4.3275  1.4425 18.3600 0 0 0 0.0 0.0 0.0
  61  2  2.8850  2.8850  0.0000    1    1    0  2.8850  2.8850  0.0000
  62  2  4.3275  4.3275  2.0400    1    1    1  4.3275  4.3275  2.0400
  63  5  2.8850  2.8850  4.0800    1    1    2  2.8850  2.8850  4.0800
  64  5  4.3275  4.3275  6.1200    1    1    3  4.3275  4.3275  6.1200
  65  1  2.8850  2.8850  8.1600 0 0 0 0.0 0.0 0.0
  66  1  4.3275  4.3275 10.2000 0 0 0 0.0 0.0 0.0
  67  1  2.8850  2.8850 12.2400 0 0 0 0.0 0.0 0.0
  68  4  4.3275  4.3275 14.2800 0 0 0 0.0 0.0 0.0
  69  3  2.8850  2.8850 16.3200 0 0 0 0.0 0.0 0.0
  70  3  4.3275  4.3275 18.3600 0 0 0 0.0 0.0 0.0
  71  2  2.8850  5.7700  0.0000    1    2    0  2.8850  5.7700  0.0000
  72  2  4.3275  7.2125  2.0400    1    2    1  4.3275  7.2125  2.0400
  73  5  2.8850  5.7700  4.0800    1    2    2  2.8850  5.7700  4.0800
  74  5  4.3275  7.2125  6.1200    1    2    3  4.3275  7.2125  6.1200
  75  1  2.8850  5.7700  8.1600 0 0 0 0.0 0.0 0.0
  76  1  4.3275  7.2125 10.2000 0 0 0 0.0 0.0 0.0
  77  1  2.8850  5.7700 12.2400 0 0 0 0.0 0.0 0.0
  78  4  4.3275  7.2125 14.2800 0 0 0 0.0 0.0 0.0
  79  3  2.8850  5.7700 16.3200 0 0 0 0.0 0.0 0.0
  80  3  4.3275  7.2125 18.3600 0 0 0 0.0 0.0 0.0
  81  2  2.8850  8.6550  0.0000    1    3    0  2.8850  8.6550  0.0000
  82  2  4.3275 10.0975  2.0400    1    3    1  4.3275 10.0975  2.0400
  83  5  2.8850  8.6550  4.0800    1    3    2  2.8850  8.6550  4.0800
  84  5  4.3275 10.0975  6.1200    1    3    3  4.3275 10.0975  6.1200
  85  1  2.8850  8.6550  8.1600 0 0 0 0.0 0.0 0.0
  86  1  4.3275 10.0975 10.2000 0 0 0 0.0 0.0 0.0
  87  1  2.8850  8.6550 12.2400 0 0 0 0.0 0.0 0.0
  88  4  4.3275 10.0975 14.2800 0 0 0 0.0 0.0 0.0
  89  3  2.8850  8.6550 16.3200 0 0 0 0.0 0.0 0.0
  90  3  4.3275 10.0975 18.3600 0 0 0 0.0 0.0 0.0
  91  2  2.8850 11.5400  0.0000    1    4    0  2.8850 11.5400  0.0000
  92  2  4.3275 12.9825  2.0400    1    4    1  4.3275 12.9825  2.0400
  93  5  2.8850 11.5400  4.0800    1    4    2  2.8850 11.5400  4.0800
  94  5  4.3275 12.9825  6.1200    1    4    3  4.3275 12.9825  6.1200
  95  1  2.8850 11.5400  8.1600 0 0 0 0.0 0.0 0.0
  96  1  4.3275 12.9825 10.2000 0 0 0 0.0 0.0 0.0
  97  1  2.8850 11.5400 12.2400 0 0 0 0.0 0.0 0.0
  98  4  4.3275 12.9825 14.2800 0 0 0 0.0 0.0 0.0
  99  3  2.8850 11.5400 16.3200 0 0 0 0.0 0.0 0.0
 100  3  4.3275 12.9825 18.3600 0 0 0 0.0 0.0 0.0
 101  2  5.7700  0.0000  0.0000    2    0    0  5.7700  0.0000  0.0000
 102  2  7.2125  1.4425  2.0400    2    0    1  7.2125  1.4425  2.0400
 103  5  5.7700  0.0000  4.0800    2    0    2  5.7700  0.0000  4.0800
 104  5  7.2125  1.4425  6.1200    2    0    3  7.2125  1.4425  6.1200
 105  1  5.7700  0.0000  8.1600 0 0 0 0.0 0.0 0.0
 106  1  7.2125  1.4425 10.2000 0 0 0 0.0 0.0 0.0
 107  1  5.7700  0.0000 12.2400 0 0 0 0.0 0.0 0.0
 108  4  7.2125  1.4425 14.2800 0 0 0 0.0 0.0 0.0
 109  3  5.7700  0.0000 16.3200 0 0 0 0.0 0.0 0.0
 110  3  7.2125  1.4425 18.3600 0 0 0 0.0 0.0 0.0
 111  2  5.7700  2.8850  0.0000    2    1    0  5.7700  2.8850  0.0000
 112  2  7.2125  4.3275  2.0400    2    1    1  7.2125  4.3275  2.0400
 113  5  5.7700  2.8850  4.0800    2    1    2  5.7700  2.8850  4.0800
 114  5  7.2125  4.3275  6.1200    2    1    3  7.2125  4.3275  6.1200
 115  1  5.7700  2.8850  8.1600 0 0 0 0.0 0.0 0.0
 116  1  7.2125  4.3275 10.2000 0 0 0 0.0 0.0 0.0
 117  1  5.7700  2.8850 12.2400 0 0 0 0.0 0.0 0.0
 118  4  7.2125  4.3275 14.2800 0 0 0 0.0 0.0 0.0
 119  3  5.7700  2.8850 16.3200 0 0 0 0.0 0.0 0.0
 120  3  7.2125  4.3275 18.3600 0 0 0 0.0 0.0 0.0
 121  2  5.7700  5.7700  0.0000    2    2    0  5.7700  5.7700  0.0000
 122  2  7.2125  7.2125  2.0400    2    2    1  7.2125  7.2125  2.0400
 123  5  5.7700  5.7700  4.0800    2    2    2  5.7700  5.7700  4.0800
 124  5  7.2125  7.2125  6.1200    2    2    3  7.2125  7.2125  6.1200
 125  1  5.7700  5.7700  8.1600 0 0 0 0.0 0.0 0.0
 126  1  7.2125  7.2125 10.2000 0 0 0 0.0 0.0 0.0
 127  1  5.7700  5.7700 12.2400 0 0 0 0.0 0.0 0.0
 128  4  7.2125  7.2125 14.2800 0 0 0 0.0 0.0 0.0
 129  3  5.7700  5.7700 16.3200 0 0 0 0.0 0.0 0.0
 130  3  7.2125  7.2125 18.3600 0 0 0 0.0 0.0 0.0
 131  2  5.7700  8.6550  0.0000    2    3    0  5.7700  8.6550  0.0000
 132  2  7.2125 10.0975  2.0400    2    3    1  7.2125 10.0975  2.0400
 133  5  5.7700  8.6550  4.0800    2    3    2  5.7700  8.6550  4.0800
 134  5  7.2125 10.0975  6.1200    2    3    3  7.2125 10.0975  6.1200
 135  1  5.7700  8.6550  8.1600 0 0 0 0.0 0.0 0.0
 136  1  7.2125 10.0975 10.2000 0 0 0 0.0 0.0 0.0
 137  1  5.7700  8.6550 12.2400 0 0 0 0.0 0.0 0.0
 138  4  7.2125 10.0975 14.2800 0 0 0 0.0 0.0 0.0
 139  3  5.7700  8.6550 16.3200 0 0 0 0.0 0.0 0.0
 140  3  7.2125 10.0975 18.3600 0 0 0 0.0 0.0 0.0
 141  2  5.7700 11.5400  0.0000    2    4    0  5.7700 11.5400  0.0000
 142  2  7.2125 12.9825  2.0400    2    4    1  7.2125 12.9825  2.0400
 143  5  5.7700 11.5400  4.0800    2    4    2  5.7700 11.5400  4.0800
 144  5  7.2125 12.9825  6.1200    2    4    3  7.2125 12.9825  6.1200
 145  1  5.7700 11.5400  8.1600 0 0 0 0.0 0.0 0.0
 146  1  7.2125 12.9825 10.2000 0 0 0 0.0 0.0 0.0
 147  1  5.7700 11.5400 12.2400 0 0 0 0.0 0.0 0.0
 148  4  7.2125 12.9825 14.2800 0 0 0 0.0 0.0 0.0
 149  3  5.7700 11.5400 16.3200 0 0 0 0.0 0.0 0.0
 150  3  7.2125 12.9825 18.3600 0 0 0 0.0 0.0 0.0
 151  2  8.6550  0.0000  0.0000    3    0    0  8.6550  0.0000  0.0000
 152  2 10.0975  1.4425  2.0400    3    0    1 10.0975  1.4425  2.0400
 153  5  8.6550  0.0000  4.0800    3    0    2  8.6550  0.0000  4.0800
 154  5 10.0975  1.4425  6.1200    3    0    3 10.0975  1.4425  6.1200
 155  1  8.6550  0.0000  8.1600 0 0 0 0.0 0.0 0.0
 156  1 10.0975  1.4425 10.2000 0 0 0 0.0 0.0 0.0
 157  1  8.6550  0.0000 12.2400 0 0 0 0.0 0.0 0.0
 158  4 10.0975  1.4425 14.2800 0 0 0 0.0 0.0 0.0
 159  3  8.6550  0.0000 16.3200 0 0 0 0.0 0.0 0.0
 160  3 10.0975  1.4425 18.3600 0 0 0 0.0 0.0 0.0
 161  2  8.6550  2.8850  0.0000    3    1    0  8.6550  2.8850  0.0000
 162  2 10.0975  4.3275  2.0400    3    1    1 10.0975  4.3275  2.0400
 163  5  8.6550  2.8850  4.0800    3    1    2  8.6550  2.8850  4.0800
 164  5 10.0975  4.3275  6.1200    3    1    3 10.0975  4.3275  6.1200
 165  1  8.6550  2.8850  8.1600 0 0 0 0.0 0.0 0.0
 166  1 10.0975  4.3275 10.2000 0 0 0 0.0 0.0 0.0
 167  1  8.6550  2.8850 12.2400 0 0 0 0.0 0.0 0.0
 168  4 10.0975  4.3275 14.2800 0 0 0 0.0 0.0 0.0
 169  3  8.6550  2.8850 16.3200 0 0 0 0.0 0.0 0.0
 170  3 10.0975  4.3275 18.3600 0 0 0 0.0 0.0 0.0
 171  2  8.6550  5.7700  0.0000    3    2    0  8.6550  5.7700  0.0000
 172  2 10.0975  7.2125  2.0400    3    2    1 10.0975  7.2125  2.0400
 173  5  8.6550  5.7700  4.0800    3    2    2  8.6550  5.7700  4.0800
 174  5 10.0975  7.2125  6.1200    3    2    3 10.0975  7.2125  6.1200
 175  1  8.6550  5.7700  8.1600 0 0 0 0.0 0.0 0.0
 176  1 10.0975  7.2125 10.2000 0 0 0 0.0 0.0 0.0
 177  1  8.6550  5.7700 12.2400 0 0 0 0.0 0.0 0.0
 178  4 10.0975  7.2125 14.2800 0 0 0 0.0 0.0 0.0
 179  3  8.6550  5.7700 16.3200 0 0 0 0.0 0.0 0.0
 180  3 10.0975  7.2125 18.3600 0 0 0 0.0 0.0 0.0
 181  2  8.6550  8.6550  0.0000    3    3    0  8.6550  8.6550  0.0000
 182  2 10.0975 10.0975  2.0400    3    3    1 10.0975 10.0975  2.0400
 183  5  8.6550  8.6550  4.0800    3    3    2  8.6550  8.6550  4.0800
 184  5 10.0975 10.0975  6.1200    3    3    3 10.0975 10.0975  6.1200
 185  1  8.6550  8.6550  8.1600 0 0 0 0.0 0.0 0.0
 186  1 10.0975 10.0975 10.2000 0 0 0 0.0 0.0 0.0
 187  1  8.6550  8.6550 12.2400 0 0 0 0.0 0.0 0.0
 188  4 10.0975 10.0975 14.2800 0 0 0 0.0 0.0 0.0
 189  3  8.6550  8.6550 16.3200 0 0 0 0.0 0.0 0.0
 190  3 10.0975 10.0975 18.3600 0 0 0 0.0 0.0 0.0
 191  2  8.6550 11.5400  0.0000    3    4    0  8.6550 11.5400  0.0000
 192  2 10.0975 12.9825  2.0400    3    4    1 10.0975 12.9825  2.0400
 193  5  8.6550 11.5400  4.0800    3    4    2  8.6550 11.5400  4.0800
 194  5 10.0975 12.9825  6.1200    3    4    3 10.0975 12.9825  6.1200
 195  1  8.6550 11.5400  8.1600 0 0 0 0.0 0.0 0.0
 196  1 10.0975 12.9825 10.2000 0 0 0 0.0 0.0 0.0
 197  1  8.6550 11.5400 12.2400 0 0 0 0.0 0.0 0.0
 198  4 10.0975 12.9825 14.2800 0 0 0 0.0 0.0 0.0
 199  3  8.6550 11.5400 16.3200 0 0 0 0.0 0.0 0.0
 200  3 10.0975 12.9825 18.3600 0 0 0 0.0 0.0 0.0
 201  2 11.5400  0.0000  0.0000    4    0    0 11.5400  0.0000  0.0000
 202  2 12.9825  1.4425  2.0400    4    0    1 12.9825  1.4425  2.0400
 203  5 11.5400  0.0000  4.0800    4    0    2 11.5400  0.0000  4.0800
 204  5 12.9825  1.4425  6.1200    4    0    3 12.9825  1.4425  6.1200
 205  1 11.5400  0.0000  8.1600 0 0 0 0.0 0.0 0.0
 206  1 12.9825  1.4425 10.2000 0 0 0 0.0 0.0 0.0
 207  1 11.5400  0.0000 12.2400 0 0 0 0.0 0.0 0.0
 208  4 12.9825  1.4425 14.2800 0 0 0 0.0 0.0 0.0
 209  3 11.5400  0.0000 16.3200 0 0 0 0.0 0.0 0.0
 210  3 12.9825  1.4425 18.3600 0 0 0 0.0 0.0 0.0
 211  2 11.5400  2.8850  0.0000    4    1    0 11.5400  2.8850  0.0000
 212  2 12.9825  4.3275  2.0400    4    1    1 12.9825  4.3275  2.0400
 213  5 11.5400  2.8850  4.0800    4    1    2 11.5400  2.8850  4.0800
 214  5 12.9825  4.3275  6.1200    4    1    3 12.9825  4.3275  6.1200
 215  1 11.5400  2.8850  8.1600 0 0 0 0.0 0.0 0.0
 216  1 12.9825  4.3275 10.2000 0 0 0 0.0 0.0 0.0
 217  1 11.5400  2.8850 12.2400 0 0 0 0.0 0.0 0.0
 218  4 12.9825  4.3275 14.2800 0 0 0 0.0 0.0 0.0
 219  3 11.5400  2.8850 16.3200 0 0 0 0.0 0.0 0.0
 220  3 12.9825  4.3275 18.3600 0 0 0 0.0 0.0 0.0
 221  2 11.5400  5.7700  0.0000    4    2    0 11.5400  5.7700  0.0000
 222  2 12.9825  7.2125  2.0400    4    2    1 12.9825  7.2125  2.0400
 223  5 11.5400  5.7700  4.0800    4    2    2 11.5400  5.7700  4.0800
 224  5 12.9825  7.2125  6.1200    4    2    3 12.9825  7.2125  6.1200
 225  1 11.5400  5.7700  8.1600 0 0 0 0.0 0.0 0.0
 226  1 12.9825  7.2125 10.2000 0 0 0 0.0 0.0 0.0
 227  1 11.5400  5.7700 12.2400 0 0 0 0.0 0.0 0.0
 228  4 12.9825  7.2125 14.2800 0 0 0 0.0 0.0 0.0
 229  3 11.5400  5.7700 16.3200 0 0 0 0.0 0.0 0.0
 230  3 12.9825  7.2125 18.3600 0 0 0 0.0 0.0 0.0
 231  2 11.5400  8.6550  0.0000    4    3    0 11.5400  8.6550  0.0000
 232  2 12.9825 10.0975  2.0400    4    3    1 12.9825 10.0975  2.0400
 233  5 11.5400  8.6550  4.0800    4    3    2 11.5400  8.6550  4.0800
 234  5 12.9825 10.0975  6.1200    4    3    3 12.9825 10.0975  6.1200
 235  1 11.5400  8.6550  8.1600 0 0 0 0.0 0.0 0.0
 236  1 12.9825 10.0975 10.2000 0 0 0 0.0 0.0 0.0
 237  1 11.5400  8.6550 12.2400 0 0 0 0.0 0.0 0.0
 238  4 12.9825 10.0975 14.2800 0 0 0 0.0 0.0 0.0
 239  3 11.5400  8.6550 16.3200 0 0 0 0.0 0.0 0.0
 240  3 12.9825 10.0975 18.3600 0 0 0 0.0 0.0 0.0
 241  2 11.5400 11.5400  0.0000    4    4    0 11.5400 11.5400  0.0000
 242  2 12.9825 12.9825  2.0400    4    4    1 12.9825 12.9825  2.0400
 243  5 11.5400 11.5400  4.0800    4    4    2 11.5400 11.5400  4.0800
 244  5 12.9825 12.9825  6.1200    4    4    3 12.9825 12.9825  6.1200
 245  1 11.5400 11.5400  8.1600 0 0 0 0.0 0.0 0.0
 246  1 12.9825 12.9825 10.2000 0 0 0 0.0 0.0 0.0
 247  1 11.5400 11.5400 12.2400 0 0 0 0.0 0.0 0.0
 248  4 12.9825 12.9825 14.2800 0 0 0 0.0 0.0 0.0
 249  3 11.5400 11.5400 16.3200 0 0 0 0.0 0.0 0.0
 250  3 12.9825 12.9825 18.3600 0 0 0 0.0 0.0 0.0
