
         250 atoms

4 atom types

0.0         5.5034298 xlo xhi
0.0         5.5034298 ylo yhi
      -1.5566050       8.5613277 zlo zhi

Masses

1 1.000000
2 1.000000
3 1.000000
4 1.000000

Atoms
 
   1  2  0.0000000  0.0000000  0.0000000    0    0    0  0.0000000  0.0000000  0.0000000
   2  2  0.5503430  0.5503430  0.7783025    0    0    1  0.5503430  0.5503430  0.7783025
   3  1  0.0000000  0.0000000  1.5566050 0 0 0 0.0 0.0 0.0
   4  1  0.5503430  0.5503430  2.3349075 0 0 0 0.0 0.0 0.0
   5  1  0.0000000  0.0000000  3.1132100 0 0 0 0.0 0.0 0.0
   6  1  0.5503430  0.5503430  3.8915125 0 0 0 0.0 0.0 0.0
   7  1  0.0000000  0.0000000  4.6698150 0 0 0 0.0 0.0 0.0
   8  4  0.5503430  0.5503430  5.4481175 0 0 0 0.0 0.0 0.0
   9  3  0.0000000  0.0000000  6.2264200 0 0 0 0.0 0.0 0.0
  10  3  0.5503430  0.5503430  7.0047225 0 0 0 0.0 0.0 0.0
  11  2  0.0000000  1.1006860  0.0000000    0    1    0  0.0000000  1.1006860  0.0000000
  12  2  0.5503430  1.6510289  0.7783025    0    1    1  0.5503430  1.6510289  0.7783025
  13  1  0.0000000  1.1006860  1.5566050 0 0 0 0.0 0.0 0.0
  14  1  0.5503430  1.6510289  2.3349075 0 0 0 0.0 0.0 0.0
  15  1  0.0000000  1.1006860  3.1132100 0 0 0 0.0 0.0 0.0
  16  1  0.5503430  1.6510289  3.8915125 0 0 0 0.0 0.0 0.0
  17  1  0.0000000  1.1006860  4.6698150 0 0 0 0.0 0.0 0.0
  18  4  0.5503430  1.6510289  5.4481175 0 0 0 0.0 0.0 0.0
  19  3  0.0000000  1.1006860  6.2264200 0 0 0 0.0 0.0 0.0
  20  3  0.5503430  1.6510289  7.0047225 0 0 0 0.0 0.0 0.0
  21  2  0.0000000  2.2013719  0.0000000    0    2    0  0.0000000  2.2013719  0.0000000
  22  2  0.5503430  2.7517149  0.7783025    0    2    1  0.5503430  2.7517149  0.7783025
  23  1  0.0000000  2.2013719  1.5566050 0 0 0 0.0 0.0 0.0
  24  1  0.5503430  2.7517149  2.3349075 0 0 0 0.0 0.0 0.0
  25  1  0.0000000  2.2013719  3.1132100 0 0 0 0.0 0.0 0.0
  26  1  0.5503430  2.7517149  3.8915125 0 0 0 0.0 0.0 0.0
  27  1  0.0000000  2.2013719  4.6698150 0 0 0 0.0 0.0 0.0
  28  4  0.5503430  2.7517149  5.4481175 0 0 0 0.0 0.0 0.0
  29  3  0.0000000  2.2013719  6.2264200 0 0 0 0.0 0.0 0.0
  30  3  0.5503430  2.7517149  7.0047225 0 0 0 0.0 0.0 0.0
  31  2  0.0000000  3.3020579  0.0000000    0    3    0  0.0000000  3.3020579  0.0000000
  32  2  0.5503430  3.8524008  0.7783025    0    3    1  0.5503430  3.8524008  0.7783025
  33  1  0.0000000  3.3020579  1.5566050 0 0 0 0.0 0.0 0.0
  34  1  0.5503430  3.8524008  2.3349075 0 0 0 0.0 0.0 0.0
  35  1  0.0000000  3.3020579  3.1132100 0 0 0 0.0 0.0 0.0
  36  1  0.5503430  3.8524008  3.8915125 0 0 0 0.0 0.0 0.0
  37  1  0.0000000  3.3020579  4.6698150 0 0 0 0.0 0.0 0.0
  38  4  0.5503430  3.8524008  5.4481175 0 0 0 0.0 0.0 0.0
  39  3  0.0000000  3.3020579  6.2264200 0 0 0 0.0 0.0 0.0
  40  3  0.5503430  3.8524008  7.0047225 0 0 0 0.0 0.0 0.0
  41  2  0.0000000  4.4027438  0.0000000    0    4    0  0.0000000  4.4027438  0.0000000
  42  2  0.5503430  4.9530868  0.7783025    0    4    1  0.5503430  4.9530868  0.7783025
  43  1  0.0000000  4.4027438  1.5566050 0 0 0 0.0 0.0 0.0
  44  1  0.5503430  4.9530868  2.3349075 0 0 0 0.0 0.0 0.0
  45  1  0.0000000  4.4027438  3.1132100 0 0 0 0.0 0.0 0.0
  46  1  0.5503430  4.9530868  3.8915125 0 0 0 0.0 0.0 0.0
  47  1  0.0000000  4.4027438  4.6698150 0 0 0 0.0 0.0 0.0
  48  4  0.5503430  4.9530868  5.4481175 0 0 0 0.0 0.0 0.0
  49  3  0.0000000  4.4027438  6.2264200 0 0 0 0.0 0.0 0.0
  50  3  0.5503430  4.9530868  7.0047225 0 0 0 0.0 0.0 0.0
  51  2  1.1006860  0.0000000  0.0000000    1    0    0  1.1006860  0.0000000  0.0000000
  52  2  1.6510289  0.5503430  0.7783025    1    0    1  1.6510289  0.5503430  0.7783025
  53  1  1.1006860  0.0000000  1.5566050 0 0 0 0.0 0.0 0.0
  54  1  1.6510289  0.5503430  2.3349075 0 0 0 0.0 0.0 0.0
  55  1  1.1006860  0.0000000  3.1132100 0 0 0 0.0 0.0 0.0
  56  1  1.6510289  0.5503430  3.8915125 0 0 0 0.0 0.0 0.0
  57  1  1.1006860  0.0000000  4.6698150 0 0 0 0.0 0.0 0.0
  58  4  1.6510289  0.5503430  5.4481175 0 0 0 0.0 0.0 0.0
  59  3  1.1006860  0.0000000  6.2264200 0 0 0 0.0 0.0 0.0
  60  3  1.6510289  0.5503430  7.0047225 0 0 0 0.0 0.0 0.0
  61  2  1.1006860  1.1006860  0.0000000    1    1    0  1.1006860  1.1006860  0.0000000
  62  2  1.6510289  1.6510289  0.7783025    1    1    1  1.6510289  1.6510289  0.7783025
  63  1  1.1006860  1.1006860  1.5566050 0 0 0 0.0 0.0 0.0
  64  1  1.6510289  1.6510289  2.3349075 0 0 0 0.0 0.0 0.0
  65  1  1.1006860  1.1006860  3.1132100 0 0 0 0.0 0.0 0.0
  66  1  1.6510289  1.6510289  3.8915125 0 0 0 0.0 0.0 0.0
  67  1  1.1006860  1.1006860  4.6698150 0 0 0 0.0 0.0 0.0
  68  4  1.6510289  1.6510289  5.4481175 0 0 0 0.0 0.0 0.0
  69  3  1.1006860  1.1006860  6.2264200 0 0 0 0.0 0.0 0.0
  70  3  1.6510289  1.6510289  7.0047225 0 0 0 0.0 0.0 0.0
  71  2  1.1006860  2.2013719  0.0000000    1    2    0  1.1006860  2.2013719  0.0000000
  72  2  1.6510289  2.7517149  0.7783025    1    2    1  1.6510289  2.7517149  0.7783025
  73  1  1.1006860  2.2013719  1.5566050 0 0 0 0.0 0.0 0.0
  74  1  1.6510289  2.7517149  2.3349075 0 0 0 0.0 0.0 0.0
  75  1  1.1006860  2.2013719  3.1132100 0 0 0 0.0 0.0 0.0
  76  1  1.6510289  2.7517149  3.8915125 0 0 0 0.0 0.0 0.0
  77  1  1.1006860  2.2013719  4.6698150 0 0 0 0.0 0.0 0.0
  78  4  1.6510289  2.7517149  5.4481175 0 0 0 0.0 0.0 0.0
  79  3  1.1006860  2.2013719  6.2264200 0 0 0 0.0 0.0 0.0
  80  3  1.6510289  2.7517149  7.0047225 0 0 0 0.0 0.0 0.0
  81  2  1.1006860  3.3020579  0.0000000    1    3    0  1.1006860  3.3020579  0.0000000
  82  2  1.6510289  3.8524008  0.7783025    1    3    1  1.6510289  3.8524008  0.7783025
  83  1  1.1006860  3.3020579  1.5566050 0 0 0 0.0 0.0 0.0
  84  1  1.6510289  3.8524008  2.3349075 0 0 0 0.0 0.0 0.0
  85  1  1.1006860  3.3020579  3.1132100 0 0 0 0.0 0.0 0.0
  86  1  1.6510289  3.8524008  3.8915125 0 0 0 0.0 0.0 0.0
  87  1  1.1006860  3.3020579  4.6698150 0 0 0 0.0 0.0 0.0
  88  4  1.6510289  3.8524008  5.4481175 0 0 0 0.0 0.0 0.0
  89  3  1.1006860  3.3020579  6.2264200 0 0 0 0.0 0.0 0.0
  90  3  1.6510289  3.8524008  7.0047225 0 0 0 0.0 0.0 0.0
  91  2  1.1006860  4.4027438  0.0000000    1    4    0  1.1006860  4.4027438  0.0000000
  92  2  1.6510289  4.9530868  0.7783025    1    4    1  1.6510289  4.9530868  0.7783025
  93  1  1.1006860  4.4027438  1.5566050 0 0 0 0.0 0.0 0.0
  94  1  1.6510289  4.9530868  2.3349075 0 0 0 0.0 0.0 0.0
  95  1  1.1006860  4.4027438  3.1132100 0 0 0 0.0 0.0 0.0
  96  1  1.6510289  4.9530868  3.8915125 0 0 0 0.0 0.0 0.0
  97  1  1.1006860  4.4027438  4.6698150 0 0 0 0.0 0.0 0.0
  98  4  1.6510289  4.9530868  5.4481175 0 0 0 0.0 0.0 0.0
  99  3  1.1006860  4.4027438  6.2264200 0 0 0 0.0 0.0 0.0
 100  3  1.6510289  4.9530868  7.0047225 0 0 0 0.0 0.0 0.0
 101  2  2.2013719  0.0000000  0.0000000    2    0    0  2.2013719  0.0000000  0.0000000
 102  2  2.7517149  0.5503430  0.7783025    2    0    1  2.7517149  0.5503430  0.7783025
 103  1  2.2013719  0.0000000  1.5566050 0 0 0 0.0 0.0 0.0
 104  1  2.7517149  0.5503430  2.3349075 0 0 0 0.0 0.0 0.0
 105  1  2.2013719  0.0000000  3.1132100 0 0 0 0.0 0.0 0.0
 106  1  2.7517149  0.5503430  3.8915125 0 0 0 0.0 0.0 0.0
 107  1  2.2013719  0.0000000  4.6698150 0 0 0 0.0 0.0 0.0
 108  4  2.7517149  0.5503430  5.4481175 0 0 0 0.0 0.0 0.0
 109  3  2.2013719  0.0000000  6.2264200 0 0 0 0.0 0.0 0.0
 110  3  2.7517149  0.5503430  7.0047225 0 0 0 0.0 0.0 0.0
 111  2  2.2013719  1.1006860  0.0000000    2    1    0  2.2013719  1.1006860  0.0000000
 112  2  2.7517149  1.6510289  0.7783025    2    1    1  2.7517149  1.6510289  0.7783025
 113  1  2.2013719  1.1006860  1.5566050 0 0 0 0.0 0.0 0.0
 114  1  2.7517149  1.6510289  2.3349075 0 0 0 0.0 0.0 0.0
 115  1  2.2013719  1.1006860  3.1132100 0 0 0 0.0 0.0 0.0
 116  1  2.7517149  1.6510289  3.8915125 0 0 0 0.0 0.0 0.0
 117  1  2.2013719  1.1006860  4.6698150 0 0 0 0.0 0.0 0.0
 118  4  2.7517149  1.6510289  5.4481175 0 0 0 0.0 0.0 0.0
 119  3  2.2013719  1.1006860  6.2264200 0 0 0 0.0 0.0 0.0
 120  3  2.7517149  1.6510289  7.0047225 0 0 0 0.0 0.0 0.0
 121  2  2.2013719  2.2013719  0.0000000    2    2    0  2.2013719  2.2013719  0.0000000
 122  2  2.7517149  2.7517149  0.7783025    2    2    1  2.7517149  2.7517149  0.7783025
 123  1  2.2013719  2.2013719  1.5566050 0 0 0 0.0 0.0 0.0
 124  1  2.7517149  2.7517149  2.3349075 0 0 0 0.0 0.0 0.0
 125  1  2.2013719  2.2013719  3.1132100 0 0 0 0.0 0.0 0.0
 126  1  2.7517149  2.7517149  3.8915125 0 0 0 0.0 0.0 0.0
 127  1  2.2013719  2.2013719  4.6698150 0 0 0 0.0 0.0 0.0
 128  4  2.7517149  2.7517149  5.4481175 0 0 0 0.0 0.0 0.0
 129  3  2.2013719  2.2013719  6.2264200 0 0 0 0.0 0.0 0.0
 130  3  2.7517149  2.7517149  7.0047225 0 0 0 0.0 0.0 0.0
 131  2  2.2013719  3.3020579  0.0000000    2    3    0  2.2013719  3.3020579  0.0000000
 132  2  2.7517149  3.8524008  0.7783025    2    3    1  2.7517149  3.8524008  0.7783025
 133  1  2.2013719  3.3020579  1.5566050 0 0 0 0.0 0.0 0.0
 134  1  2.7517149  3.8524008  2.3349075 0 0 0 0.0 0.0 0.0
 135  1  2.2013719  3.3020579  3.1132100 0 0 0 0.0 0.0 0.0
 136  1  2.7517149  3.8524008  3.8915125 0 0 0 0.0 0.0 0.0
 137  1  2.2013719  3.3020579  4.6698150 0 0 0 0.0 0.0 0.0
 138  4  2.7517149  3.8524008  5.4481175 0 0 0 0.0 0.0 0.0
 139  3  2.2013719  3.3020579  6.2264200 0 0 0 0.0 0.0 0.0
 140  3  2.7517149  3.8524008  7.0047225 0 0 0 0.0 0.0 0.0
 141  2  2.2013719  4.4027438  0.0000000    2    4    0  2.2013719  4.4027438  0.0000000
 142  2  2.7517149  4.9530868  0.7783025    2    4    1  2.7517149  4.9530868  0.7783025
 143  1  2.2013719  4.4027438  1.5566050 0 0 0 0.0 0.0 0.0
 144  1  2.7517149  4.9530868  2.3349075 0 0 0 0.0 0.0 0.0
 145  1  2.2013719  4.4027438  3.1132100 0 0 0 0.0 0.0 0.0
 146  1  2.7517149  4.9530868  3.8915125 0 0 0 0.0 0.0 0.0
 147  1  2.2013719  4.4027438  4.6698150 0 0 0 0.0 0.0 0.0
 148  4  2.7517149  4.9530868  5.4481175 0 0 0 0.0 0.0 0.0
 149  3  2.2013719  4.4027438  6.2264200 0 0 0 0.0 0.0 0.0
 150  3  2.7517149  4.9530868  7.0047225 0 0 0 0.0 0.0 0.0
 151  2  3.3020579  0.0000000  0.0000000    3    0    0  3.3020579  0.0000000  0.0000000
 152  2  3.8524008  0.5503430  0.7783025    3    0    1  3.8524008  0.5503430  0.7783025
 153  1  3.3020579  0.0000000  1.5566050 0 0 0 0.0 0.0 0.0
 154  1  3.8524008  0.5503430  2.3349075 0 0 0 0.0 0.0 0.0
 155  1  3.3020579  0.0000000  3.1132100 0 0 0 0.0 0.0 0.0
 156  1  3.8524008  0.5503430  3.8915125 0 0 0 0.0 0.0 0.0
 157  1  3.3020579  0.0000000  4.6698150 0 0 0 0.0 0.0 0.0
 158  4  3.8524008  0.5503430  5.4481175 0 0 0 0.0 0.0 0.0
 159  3  3.3020579  0.0000000  6.2264200 0 0 0 0.0 0.0 0.0
 160  3  3.8524008  0.5503430  7.0047225 0 0 0 0.0 0.0 0.0
 161  2  3.3020579  1.1006860  0.0000000    3    1    0  3.3020579  1.1006860  0.0000000
 162  2  3.8524008  1.6510289  0.7783025    3    1    1  3.8524008  1.6510289  0.7783025
 163  1  3.3020579  1.1006860  1.5566050 0 0 0 0.0 0.0 0.0
 164  1  3.8524008  1.6510289  2.3349075 0 0 0 0.0 0.0 0.0
 165  1  3.3020579  1.1006860  3.1132100 0 0 0 0.0 0.0 0.0
 166  1  3.8524008  1.6510289  3.8915125 0 0 0 0.0 0.0 0.0
 167  1  3.3020579  1.1006860  4.6698150 0 0 0 0.0 0.0 0.0
 168  4  3.8524008  1.6510289  5.4481175 0 0 0 0.0 0.0 0.0
 169  3  3.3020579  1.1006860  6.2264200 0 0 0 0.0 0.0 0.0
 170  3  3.8524008  1.6510289  7.0047225 0 0 0 0.0 0.0 0.0
 171  2  3.3020579  2.2013719  0.0000000    3    2    0  3.3020579  2.2013719  0.0000000
 172  2  3.8524008  2.7517149  0.7783025    3    2    1  3.8524008  2.7517149  0.7783025
 173  1  3.3020579  2.2013719  1.5566050 0 0 0 0.0 0.0 0.0
 174  1  3.8524008  2.7517149  2.3349075 0 0 0 0.0 0.0 0.0
 175  1  3.3020579  2.2013719  3.1132100 0 0 0 0.0 0.0 0.0
 176  1  3.8524008  2.7517149  3.8915125 0 0 0 0.0 0.0 0.0
 177  1  3.3020579  2.2013719  4.6698150 0 0 0 0.0 0.0 0.0
 178  4  3.8524008  2.7517149  5.4481175 0 0 0 0.0 0.0 0.0
 179  3  3.3020579  2.2013719  6.2264200 0 0 0 0.0 0.0 0.0
 180  3  3.8524008  2.7517149  7.0047225 0 0 0 0.0 0.0 0.0
 181  2  3.3020579  3.3020579  0.0000000    3    3    0  3.3020579  3.3020579  0.0000000
 182  2  3.8524008  3.8524008  0.7783025    3    3    1  3.8524008  3.8524008  0.7783025
 183  1  3.3020579  3.3020579  1.5566050 0 0 0 0.0 0.0 0.0
 184  1  3.8524008  3.8524008  2.3349075 0 0 0 0.0 0.0 0.0
 185  1  3.3020579  3.3020579  3.1132100 0 0 0 0.0 0.0 0.0
 186  1  3.8524008  3.8524008  3.8915125 0 0 0 0.0 0.0 0.0
 187  1  3.3020579  3.3020579  4.6698150 0 0 0 0.0 0.0 0.0
 188  4  3.8524008  3.8524008  5.4481175 0 0 0 0.0 0.0 0.0
 189  3  3.3020579  3.3020579  6.2264200 0 0 0 0.0 0.0 0.0
 190  3  3.8524008  3.8524008  7.0047225 0 0 0 0.0 0.0 0.0
 191  2  3.3020579  4.4027438  0.0000000    3    4    0  3.3020579  4.4027438  0.0000000
 192  2  3.8524008  4.9530868  0.7783025    3    4    1  3.8524008  4.9530868  0.7783025
 193  1  3.3020579  4.4027438  1.5566050 0 0 0 0.0 0.0 0.0
 194  1  3.8524008  4.9530868  2.3349075 0 0 0 0.0 0.0 0.0
 195  1  3.3020579  4.4027438  3.1132100 0 0 0 0.0 0.0 0.0
 196  1  3.8524008  4.9530868  3.8915125 0 0 0 0.0 0.0 0.0
 197  1  3.3020579  4.4027438  4.6698150 0 0 0 0.0 0.0 0.0
 198  4  3.8524008  4.9530868  5.4481175 0 0 0 0.0 0.0 0.0
 199  3  3.3020579  4.4027438  6.2264200 0 0 0 0.0 0.0 0.0
 200  3  3.8524008  4.9530868  7.0047225 0 0 0 0.0 0.0 0.0
 201  2  4.4027438  0.0000000  0.0000000    4    0    0  4.4027438  0.0000000  0.0000000
 202  2  4.9530868  0.5503430  0.7783025    4    0    1  4.9530868  0.5503430  0.7783025
 203  1  4.4027438  0.0000000  1.5566050 0 0 0 0.0 0.0 0.0
 204  1  4.9530868  0.5503430  2.3349075 0 0 0 0.0 0.0 0.0
 205  1  4.4027438  0.0000000  3.1132100 0 0 0 0.0 0.0 0.0
 206  1  4.9530868  0.5503430  3.8915125 0 0 0 0.0 0.0 0.0
 207  1  4.4027438  0.0000000  4.6698150 0 0 0 0.0 0.0 0.0
 208  4  4.9530868  0.5503430  5.4481175 0 0 0 0.0 0.0 0.0
 209  3  4.4027438  0.0000000  6.2264200 0 0 0 0.0 0.0 0.0
 210  3  4.9530868  0.5503430  7.0047225 0 0 0 0.0 0.0 0.0
 211  2  4.4027438  1.1006860  0.0000000    4    1    0  4.4027438  1.1006860  0.0000000
 212  2  4.9530868  1.6510289  0.7783025    4    1    1  4.9530868  1.6510289  0.7783025
 213  1  4.4027438  1.1006860  1.5566050 0 0 0 0.0 0.0 0.0
 214  1  4.9530868  1.6510289  2.3349075 0 0 0 0.0 0.0 0.0
 215  1  4.4027438  1.1006860  3.1132100 0 0 0 0.0 0.0 0.0
 216  1  4.9530868  1.6510289  3.8915125 0 0 0 0.0 0.0 0.0
 217  1  4.4027438  1.1006860  4.6698150 0 0 0 0.0 0.0 0.0
 218  4  4.9530868  1.6510289  5.4481175 0 0 0 0.0 0.0 0.0
 219  3  4.4027438  1.1006860  6.2264200 0 0 0 0.0 0.0 0.0
 220  3  4.9530868  1.6510289  7.0047225 0 0 0 0.0 0.0 0.0
 221  2  4.4027438  2.2013719  0.0000000    4    2    0  4.4027438  2.2013719  0.0000000
 222  2  4.9530868  2.7517149  0.7783025    4    2    1  4.9530868  2.7517149  0.7783025
 223  1  4.4027438  2.2013719  1.5566050 0 0 0 0.0 0.0 0.0
 224  1  4.9530868  2.7517149  2.3349075 0 0 0 0.0 0.0 0.0
 225  1  4.4027438  2.2013719  3.1132100 0 0 0 0.0 0.0 0.0
 226  1  4.9530868  2.7517149  3.8915125 0 0 0 0.0 0.0 0.0
 227  1  4.4027438  2.2013719  4.6698150 0 0 0 0.0 0.0 0.0
 228  4  4.9530868  2.7517149  5.4481175 0 0 0 0.0 0.0 0.0
 229  3  4.4027438  2.2013719  6.2264200 0 0 0 0.0 0.0 0.0
 230  3  4.9530868  2.7517149  7.0047225 0 0 0 0.0 0.0 0.0
 231  2  4.4027438  3.3020579  0.0000000    4    3    0  4.4027438  3.3020579  0.0000000
 232  2  4.9530868  3.8524008  0.7783025    4    3    1  4.9530868  3.8524008  0.7783025
 233  1  4.4027438  3.3020579  1.5566050 0 0 0 0.0 0.0 0.0
 234  1  4.9530868  3.8524008  2.3349075 0 0 0 0.0 0.0 0.0
 235  1  4.4027438  3.3020579  3.1132100 0 0 0 0.0 0.0 0.0
 236  1  4.9530868  3.8524008  3.8915125 0 0 0 0.0 0.0 0.0
 237  1  4.4027438  3.3020579  4.6698150 0 0 0 0.0 0.0 0.0
 238  4  4.9530868  3.8524008  5.4481175 0 0 0 0.0 0.0 0.0
 239  3  4.4027438  3.3020579  6.2264200 0 0 0 0.0 0.0 0.0
 240  3  4.9530868  3.8524008  7.0047225 0 0 0 0.0 0.0 0.0
 241  2  4.4027438  4.4027438  0.0000000    4    4    0  4.4027438  4.4027438  0.0000000
 242  2  4.9530868  4.9530868  0.7783025    4    4    1  4.9530868  4.9530868  0.7783025
 243  1  4.4027438  4.4027438  1.5566050 0 0 0 0.0 0.0 0.0
 244  1  4.9530868  4.9530868  2.3349075 0 0 0 0.0 0.0 0.0
 245  1  4.4027438  4.4027438  3.1132100 0 0 0 0.0 0.0 0.0
 246  1  4.9530868  4.9530868  3.8915125 0 0 0 0.0 0.0 0.0
 247  1  4.4027438  4.4027438  4.6698150 0 0 0 0.0 0.0 0.0
 248  4  4.9530868  4.9530868  5.4481175 0 0 0 0.0 0.0 0.0
 249  3  4.4027438  4.4027438  6.2264200 0 0 0 0.0 0.0 0.0
 250  3  4.9530868  4.9530868  7.0047225 0 0 0 0.0 0.0 0.0
